LAMMPS data file

-12.5 12.5 xlo xhi
-12.5 12.5 ylo yhi
-25.0 25.0 zlo zhi
2880 atoms
2400 bonds
960 angles

2 atom types
1 bond types
2 angle types


Masses

	1 1.0
	2 1.0

Atoms # angle

	1 1 1 1.3189742821208192 -9.209177382220656 2.500204867619681
	2 1 2 1.3158721118618546 -9.206459964593472 1.5045637778863885
	3 1 2 1.3188226525630478 -9.206878832984554 0.5027181249573272
	4 1 2 1.3204648358031508 -9.206447048018866 -0.49998630749914924
	5 1 2 1.3200764950671497 -9.210358387912947 -1.4963517227678502
	6 1 1 1.3166677517872247 -9.206210421177724 -2.4972926938987547
	7 2 1 0.001498559452686924 10.528429225579671 2.5001415983557274
	8 2 2 0.0006214163824978197 10.529668911547152 1.5032359475578712
	9 2 2 0.0030769255574062695 10.528234177244993 0.504986049678946
	10 2 2 0.00490417669388115 10.529743499396087 -0.49674770361866094
	11 2 2 0.0034422336528547003 10.528260396593579 -1.499324517474888
	12 2 1 0.0036074417009704087 10.528942561086062 -2.4984487906222053
	13 3 1 7.897166018899422 -5.2587104555650965 2.5046702175797813
	14 3 2 7.896525818088808 -5.260300245583193 1.5016093469553797
	15 3 2 7.897708342256261 -5.261468338609306 0.5019580950026408
	16 3 2 7.899188213865287 -5.262022106769175 -0.4968840642765698
	17 3 2 7.895156918823175 -5.258994673998575 -1.4960645084625566
	18 3 1 7.895933689320228 -5.258775473582788 -2.499707159825974
	19 4 1 -1.314108888381482 -2.6308275500339464 2.5022516968332464
	20 4 2 -1.3118078523327739 -2.6304257363234522 1.500260106505322
	21 4 2 -1.3137667144851028 -2.6305863821458746 0.5004537652280956
	22 4 2 -1.3128878117542762 -2.630085466704326 -0.4966400256102182
	23 4 2 -1.3147918964643692 -2.626868381815888 -1.4981744491587758
	24 4 1 -1.3152619972863593 -2.6284334066107222 -2.495364227234661
	25 5 1 11.844307148931474 -9.205753363321021 2.502499479068438
	26 5 2 11.844231406282141 -9.207425248529397 1.5049754825261765
	27 5 2 11.846849981532584 -9.208226090092928 0.5037886442265415
	28 5 2 11.844592376635333 -9.20787975498849 -0.496071071496431
	29 5 2 11.844178542404673 -9.20685389793053 -1.4964442856100513
	30 5 1 11.846765561590962 -9.20995165262307 -2.4963549244146184
	31 6 1 10.530952909116806 2.636418578318044 2.500073531524827
	32 6 2 10.530633989924912 2.6364849225687523 1.5047860508980548
	33 6 2 10.527059609534845 2.6364420914375355 0.5044496777786026
	34 6 2 10.530427658611398 2.63397888698746 -0.4988381354018035
	35 6 2 10.530325192367275 2.6361965981673383 -1.4986693486385385
	36 6 1 10.529010461511794 2.6337927115132933 -2.495344913420094
	37 7 1 1.3159920272401542 -7.89107681112698 2.503071866234745
	38 7 2 1.3159313005097795 -7.891140743241129 1.500079958647618
	39 7 2 1.3195792286959942 -7.892173048488952 0.5046455211039851
	40 7 2 1.3161198861678323 -7.890530255707201 -0.4996665499561645
	41 7 2 1.3175110235782326 -7.8925853484455235 -1.4951696895960795
	42 7 1 1.3186006328953543 -7.893442519139408 -2.4987916214295285
	43 8 1 -3.9429278294493355 0.001129347142086622 2.5006227735291766
	44 8 2 -3.9459267672675935 0.002930615324063664 1.5027704525108663
	45 8 2 -3.9433198671730674 0.002802379760030929 0.501442106072156
	46 8 2 -3.945303939339227 0.004090604854854552 -0.49686746768790124
	47 8 2 -3.942573032839144 0.0018470220554584044 -1.4972369424473935
	48 8 1 -3.944398800044566 0.0042414560413753 -2.4992726323090673
	49 9 1 0.002032551683740633 -3.94281862624432 2.500215334442841
	50 9 2 0.00411353140090751 -3.945291500865775 1.5041490199263905
	51 9 2 4.9772804036459784e-05 -3.94554319026384 0.5003931501858282
	52 9 2 0.0032630728816831923 -3.9459991755596335 -0.4964867396467011
	53 9 2 0.0047190071347104545 -3.946734335541325 -1.4956761085229962
	54 9 1 0.00029732075800169234 -3.945464568511077 -2.4978511296941073
	55 10 1 11.844549510892064 -7.889854530495582 2.503878455940509
	56 10 2 11.843649549971492 -7.893387658177759 1.5043156010209466
	57 10 2 11.846511799021584 -7.892183309577544 0.5017214786548116
	58 10 2 11.8470798498987 -7.893157124378424 -0.4990864381053672
	59 10 2 11.846505753764417 -7.890675165114707 -1.4966605529721433
	60 10 1 11.846897331316786 -7.890108269219191 -2.496258757483491
	61 11 1 0.004303507047738389 1.3170252073858224 2.500706232784505
	62 11 2 0.00335030924657468 1.3193625663674857 1.5008352646439114
	63 11 2 0.00197778636552438 1.3203407525152921 0.5028070038377511
	64 11 2 0.0028916795746313636 1.3167601225486658 -0.4973698887569106
	65 11 2 0.0026171736369746 1.3162341518854432 -1.4950902865343665
	66 11 1 0.002856978002278872 1.3158215180975334 -2.496136753993873
	67 12 1 10.531207118042884 3.9503177711942374 2.5015984081814135
	68 12 2 10.527253328052321 3.950731054222217 1.500975536992284
	69 12 2 10.529204228936273 3.950379616934531 0.5048121154656219
	70 12 2 10.526677115801332 3.949868285170926 -0.49627951260358677
	71 12 2 10.527201923176056 3.9493087547115553 -1.4996855225077252
	72 12 1 10.529945193792562 3.9478072604864303 -2.4980245414582103
	73 13 1 -11.837737650002293 3.949729922736383 2.5045631096682044
	74 13 2 -11.838275677569202 3.9519450408531918 1.5006370150452446
	75 13 2 -11.841737448631243 3.947720052320479 0.5043442714717365
	76 13 2 -11.83893491326116 3.949851279521627 -0.4991822829190176
	77 13 2 -11.838736595969259 3.9489585079918617 -1.4964456006836704
	78 13 1 -11.839803486513558 3.9499057703553553 -2.4960516713377006
	79 14 1 -2.631115219990804 3.9502622135692502 2.500986174736479
	80 14 2 -2.627538263609353 3.949812651233279 1.504943476666839
	81 14 2 -2.630664230745042 3.952183516753254 0.504004585183043
	82 14 2 -2.6291726448855446 3.951436091373531 -0.4969857554737944
	83 14 2 -2.628303342048464 3.9519368748661696 -1.4996736479179436
	84 14 1 -2.6274040063486286 3.949277494952464 -2.4983722719194965
	85 15 1 -9.205556181933424 2.6354848998788025 2.502427675693898
	86 15 2 -9.208413173807351 2.63596659189778 1.5004340743610745
	87 15 2 -9.206984222004905 2.6355247204869463 0.5039959818985805
	88 15 2 -9.208914882165775 2.635562143282151 -0.4988733577906217
	89 15 2 -9.208714776037052 2.6336661879294425 -1.4972929500818493
	90 15 1 -9.209963247461772 2.6336136863716173 -2.4999984965494653
	91 16 1 7.898458745737 3.951627800613804 2.500694658395601
	92 16 2 7.898255770951597 3.951473936494606 1.504909141614359
	93 16 2 7.898955794917106 3.949488953479853 0.5048984435425483
	94 16 2 7.8996067641295244 3.9498868059486356 -0.4962327673070805
	95 16 2 7.899306030443628 3.9497491564124765 -1.4956810687945146
	96 16 1 7.898244684935572 3.9488380423325053 -2.4961617386500827
	97 17 1 3.95022184498193 -10.525846563706518 2.501956902131523
	98 17 2 3.947737126119622 -10.523934954657598 1.5021426980407147
	99 17 2 3.949487108267485 -10.52338428770573 0.5006134533008804
	100 17 2 3.9520372656024167 -10.522895537233309 -0.49588109320803614
	101 17 2 3.9518524272139515 -10.523399189239067 -1.499798908895477
	102 17 1 3.9509258551732214 -10.523470660202367 -2.495870213889148
	103 18 1 -3.9447076186852597 10.530382009950504 2.5049850514653627
	104 18 2 -3.945615646995792 10.527170896673786 1.5019583739972695
	105 18 2 -3.943603171103303 10.528511934132975 0.502941900547146
	106 18 2 -3.946731628693023 10.529946407028353 -0.4985995879906675
	107 18 2 -3.946415333250611 10.5306305394666 -1.497177935894397
	108 18 1 -3.9449459263409 10.530809908299926 -2.499569937819695
	109 19 1 6.582428140672758 -3.9457285096038084 2.5008770487499254
	110 19 2 6.58232136167089 -3.945554311298317 1.5016494791624697
	111 19 2 6.5836657572472 -3.946371929349234 0.5025608682891887
	112 19 2 6.57906743442441 -3.9465515805969464 -0.4955829063318322
	113 19 2 6.582893606162317 -3.9445842436023613 -1.4988877330200432
	114 19 1 6.58173610633416 -3.9473076884220633 -2.4964350318453103
	115 20 1 -5.259574141334023 -7.8915066169874315 2.503056693421376
	116 20 2 -5.262789312573719 -7.893504812260008 1.5028718902404896
	117 20 2 -5.261186960906697 -7.8897767259623555 0.5046187267868759
	118 20 2 -5.262397855224229 -7.891787039142015 -0.4965189244694827
	119 20 2 -5.262475177665337 -7.893173863869757 -1.4964204107653725
	120 20 1 -5.258652354269727 -7.893028128854232 -2.498805281441544
	121 21 1 7.898845802118914 5.26608280813797 2.502382942108529
	122 21 2 7.896017592212402 5.263521186480083 1.500089457104485
	123 21 2 7.897636693008083 5.264113446104142 0.5048776648921341
	124 21 2 7.895274228247193 5.265418338678477 -0.4980267010146452
	125 21 2 7.89589839948169 5.266901673361861 -1.4967814761895986
	126 21 1 7.898365630530522 5.263571937616324 -2.498236282921518
	127 22 1 -3.9447692556809604 9.212659921508125 2.5002030878093637
	128 22 2 -3.9463982837781275 9.215251439030997 1.5008128486237666
	129 22 2 -3.9431081593903174 9.214637001584796 0.5019564687853906
	130 22 2 -3.9450345034534102 9.214646324827724 -0.49659656837214894
	131 22 2 -3.943183702370486 9.214314298718635 -1.496543642602797
	132 22 1 -3.942803550522597 9.214640351454948 -2.499104686562085
	133 23 1 -3.943627299677225 6.579380775036626 2.50212928120147
	134 23 2 -3.945384661616864 6.579958208890932 1.50468952554318
	135 23 2 -3.9468945376608255 6.578971865495997 0.5016146040183199
	136 23 2 -3.9424146974614254 6.580270844062996 -0.49584652867241136
	137 23 2 -3.946502852867529 6.581879260195046 -1.495207953324103
	138 23 1 -3.9437858548798026 6.583849908296947 -2.4971272167545546
	139 24 1 -1.3108728001514434 -7.890551606946663 2.5038912411305096
	140 24 2 -1.311347024249653 -7.891579384518955 1.5017818227318829
	141 24 2 -1.3131480614839255 -7.893604340126851 0.5038877206194086
	142 24 2 -1.3149390811761361 -7.89185085236033 -0.4973205053521044
	143 24 2 -1.3124299596668219 -7.890934409111937 -1.4994508605696804
	144 24 1 -1.3126647688758706 -7.8926670626929365 -2.49692899282166
	145 25 1 3.9508383437683654 11.845032661086698 2.5036644303842936
	146 25 2 3.949968547338656 11.844419602203542 1.5014338443272426
	147 25 2 3.948514179402616 11.845581773688355 0.5034785567640623
	148 25 2 3.9483458336175157 11.846964450240952 -0.496644246098553
	149 25 2 3.9500245016686817 11.84631113991562 -1.4975673978334842
	150 25 1 3.9497481454031345 11.843396635158284 -2.4992193225930466
	151 26 1 -10.52275768657928 9.21474687063067 2.50338899389048
	152 26 2 -10.524471681890203 9.21340492624557 1.5028170623683699
	153 26 2 -10.521632959056312 9.212464686849252 0.50082391326033
	154 26 2 -10.521931125007038 9.214999958273909 -0.4997586720249905
	155 26 2 -10.525324669319486 9.213707734057472 -1.496055774221826
	156 26 1 -10.523282326939981 9.211484261770106 -2.499411792123689
	157 27 1 2.6341088105387467 -9.20644876375618 2.5010853359053606
	158 27 2 2.6319546108427847 -9.207771090810509 1.5009590857406763
	159 27 2 2.631916065970842 -9.206659992799269 0.5041061330303896
	160 27 2 2.633570625123912 -9.209055933988633 -0.4986143955528152
	161 27 2 2.6333838044975626 -9.207641777573894 -1.4973608996094376
	162 27 1 2.633355693274284 -9.207339210893283 -2.496621162790263
	163 28 1 -11.83931386841802 11.844041737733155 2.5031195139096956
	164 28 2 -11.839145749241824 11.843806882444799 1.5015160050633212
	165 28 2 -11.8393765187628 11.845166971852905 0.503053992194609
	166 28 2 -11.840191073113406 11.844934132693977 -0.4950711518240179
	167 28 2 -11.839965140562676 11.846320336730846 -1.4995933815434652
	168 28 1 -11.837729121889385 11.846813793935546 -2.4986906799207302
	169 29 1 6.050707836096347e-05 11.844520305225064 2.5009135612883115
	170 29 2 0.0048581562714263395 11.846593755333483 1.5048033244296513
	171 29 2 0.003019348288703764 11.84468106499241 0.5041635892469012
	172 29 2 0.0032617448284451055 11.843348051539731 -0.4953285698087107
	173 29 2 0.0021984972498276566 11.845973044299441 -1.4974953102150577
	174 29 1 0.0009167812155256378 11.843584897392942 -2.497127946155986
	175 30 1 -3.94665341063131 -3.947299731759549 2.5021694561217496
	176 30 2 -3.9435574351933353 -3.944297634683917 1.5016207318790369
	177 30 2 -3.943782216356154 -3.944945847887082 0.5049975067612852
	178 30 2 -3.9434882627904075 -3.9432152638462727 -0.49870225546930613
	179 30 2 -3.9466069462383873 -3.9463719015070966 -1.4978386751782686
	180 30 1 -3.944807675454527 -3.9463953743139704 -2.4961002761450573
	181 31 1 10.53065794524577 11.843685288086697 2.5025403209837815
	182 31 2 10.529287662486247 11.84571715402755 1.5007373622723268
	183 31 2 10.5277201447807 11.845758793137188 0.5028409615714632
	184 31 2 10.530815518440878 11.84434455496784 -0.49796693577483075
	185 31 2 10.527848325561337 11.84326212602117 -1.496746168326183
	186 31 1 10.527639219482797 11.846416640761111 -2.4986467580217395
	187 32 1 11.845472061314021 6.581788289130563 2.5031422939893946
	188 32 2 11.846582347036055 6.579797310678401 1.5007490777293773
	189 32 2 11.842714774264572 6.579329563525645 0.5026711551180187
	190 32 2 11.842933918917657 6.582983208071521 -0.4998869473472656
	191 32 2 11.84397829801657 6.581313388277997 -1.4989173584966158
	192 32 1 11.843884794255482 6.580061325598696 -2.4985908594683264
	193 33 1 2.6362133026720636 -3.945282544221082 2.5019293247063037
	194 33 2 2.6346348196305915 -3.944047711768889 1.5033013827246384
	195 33 2 2.632002742204541 -3.944458908157458 0.5036796179994899
	196 33 2 2.635556789199138 -3.9444257497929347 -0.4993471347088272
	197 33 2 2.631997648987905 -3.9457531525871024 -1.49536220595267
	198 33 1 2.633942035012588 -3.9428910515168933 -2.497701625233615
	199 34 1 3.9511440115854333 -11.839679627279448 2.503543511307162
	200 34 2 3.9489543174359687 -11.837655936839711 1.501328540343683
	201 34 2 3.947399305196554 -11.83849943422731 0.5033830223162229
	202 34 2 3.950652928302261 -11.838668188146329 -0.4970686789449076
	203 34 2 3.9479448158180253 -11.838759244545995 -1.4999670073810965
	204 34 1 3.948282635447406 -11.840000871131918 -2.4981081530979568
	205 35 1 -3.946773595240559 -7.892602054085064 2.503118086218117
	206 35 2 -3.945481103894969 -7.891194344688829 1.5011546104768914
	207 35 2 -3.946649294691277 -7.890992342882821 0.5033436406488103
	208 35 2 -3.9452215675861577 -7.894053005681174 -0.4966815813033551
	209 35 2 -3.9436186423030004 -7.893917128839224 -1.496553491315349
	210 35 1 -3.9455902356207226 -7.890161249030815 -2.496242301561958
	211 36 1 -10.524947133622517 -11.837415131559707 2.500126163780523
	212 36 2 -10.52539166940129 -11.84089574830216 1.5036604004168495
	213 36 2 -10.523684949321176 -11.839783386118425 0.5011126666938609
	214 36 2 -10.522533453921886 -11.841519731117637 -0.49876329389797575
	215 36 2 -10.522283987875808 -11.839850025835565 -1.495615911317002
	216 36 1 -10.523307468952522 -11.838157539923104 -2.4990629836353544
	217 37 1 5.264739004075224 0.0018835302590034131 2.5024709960294103
	218 37 2 5.265520229859229 0.0041123307879123595 1.5008659526595602
	219 37 2 5.26741532430999 0.004445231470717049 0.5003775951778054
	220 37 2 5.263204846584948 0.0014637648640976758 -0.4979962761611922
	221 37 2 5.268010141770584 0.00035704298526741395 -1.4960934736738585
	222 37 1 5.26553501950478 0.0006493676238656732 -2.4981695984566468
	223 38 1 7.896641349140667 6.580165230922565 2.5014718187876195
	224 38 2 7.8968364362612755 6.583758675395628 1.5022943028449078
	225 38 2 7.8994875171658245 6.579100028778972 0.5003305512928661
	226 38 2 7.894875921636249 6.582277091612366 -0.498898836544431
	227 38 2 7.897618943011728 6.582924199099081 -1.4983409304067075
	228 38 1 7.895965229568808 6.582574411356757 -2.497620511033502
	229 39 1 2.6323249980986674 -2.631141721781072 2.503685837505697
	230 39 2 2.6358810090428153 -2.6271271369770033 1.5025504450374234
	231 39 2 2.632346220200244 -2.6304506603070283 0.5022676194451047
	232 39 2 2.635838234236449 -2.6283279602742446 -0.49862896521523337
	233 39 2 2.635358640576207 -2.629401746491818 -1.4950861802740292
	234 39 1 2.6337225830558446 -2.627392965623903 -2.499927291843195
	235 40 1 0.003591106325465841 -9.20853392357555 2.5024950465399494
	236 40 2 0.0009941290018278942 -9.20587875822084 1.5009982250669058
	237 40 2 0.002807933520375717 -9.20753958767159 0.5042922171364975
	238 40 2 0.0023333326984280494 -9.206376859383669 -0.4973805171788655
	239 40 2 0.004781673297113095 -9.206943276620812 -1.49543947369508
	240 40 1 0.004711802661543273 -9.206515085007885 -2.4993881622670227
	241 41 1 -9.209904172798302 9.21360752454096 2.50135603341381
	242 41 2 -9.208600554168344 9.211395456672593 1.503810858315302
	243 41 2 -9.206253827271247 9.211190338924796 0.5025841746838202
	244 41 2 -9.208551251139486 9.214476392379378 -0.4976750384991226
	245 41 2 -9.206872270543734 9.213356835172371 -1.4951087594299022
	246 41 1 -9.208428150409734 9.215464670137775 -2.497922807083534
	247 42 1 9.211439659046428 5.267068300039028 2.501358595011766
	248 42 2 9.213355089443649 5.266387970136298 1.500998386290765
	249 42 2 9.210698350467865 5.268093061454642 0.5040869507153896
	250 42 2 9.211144842064272 5.267397741887457 -0.498709348991242
	251 42 2 9.211762739491416 5.267020976488757 -1.4962131899382143
	252 42 1 9.214756102509135 5.263841154776275 -2.4962620691238744
	253 43 1 -6.576598249049688 7.8963662591459 2.5036715143877446
	254 43 2 -6.574721653016263 7.896349145893079 1.5007740577833024
	255 43 2 -6.5739889448293845 7.899332792051452 0.5014492057490801
	256 43 2 -6.574875296881055 7.895185308216345 -0.4954372704627317
	257 43 2 -6.575074107244729 7.895721157679065 -1.4985215637650116
	258 43 1 -6.575969594146849 7.8965156304264195 -2.496318830920263
	259 44 1 -3.9444066067059116 -6.577912225158214 2.50305054754942
	260 44 2 -3.9472981256268866 -6.578388629344539 1.5008060390855333
	261 44 2 -3.945600032492534 -6.578887819729349 0.5046495376183184
	262 44 2 -3.94617087627527 -6.577594175668828 -0.49812178837147375
	263 44 2 -3.942664727473989 -6.577188271775314 -1.497844335718977
	264 44 1 -3.945875884690119 -6.574066143245795 -2.4981757138756637
	265 45 1 -9.210108628684527 -3.944078509081436 2.5035830246035773
	266 45 2 -9.2086651106685 -3.946311495275382 1.502046257255918
	267 45 2 -9.208330974736912 -3.942391922035692 0.5042921766277709
	268 45 2 -9.207421771297374 -3.94639883131329 -0.49656042739305484
	269 45 2 -9.206731320778063 -3.94699147735916 -1.4981025674164892
	270 45 1 -9.208892076801746 -3.944516264439574 -2.4967347339081587
	271 46 1 6.579854307362996 3.9497167182332014 2.5049608394326794
	272 46 2 6.579026631617191 3.949223389111778 1.5016715623192816
	273 46 2 6.580975283521167 3.951714389630256 0.5021915251914973
	274 46 2 6.583362758428534 3.950246120267784 -0.4978769115253268
	275 46 2 6.580208883859343 3.951486490329241 -1.4967789974099837
	276 46 1 6.580008498770464 3.9480187735199084 -2.4993728433567344
	277 47 1 -9.205980955975228 7.8967537997932435 2.504101538971805
	278 47 2 -9.206049505325675 7.895868507344234 1.500162861749073
	279 47 2 -9.209624635356747 7.8986017356335685 0.5000770658806059
	280 47 2 -9.207705655489384 7.895693175933203 -0.4961666965880988
	281 47 2 -9.208129437307328 7.897482241800646 -1.4985329587154985
	282 47 1 -9.208243423270984 7.894965405119992 -2.4959524017646504
	283 48 1 -9.205988821172594 -7.890973604506671 2.5024781113622394
	284 48 2 -9.206307394042254 -7.894717737726267 1.5033297870349411
	285 48 2 -9.206689386202896 -7.893103560919301 0.5042828584547199
	286 48 2 -9.210525365781438 -7.891576241048069 -0.4984948800950969
	287 48 2 -9.207383176170673 -7.893480048807511 -1.4989511006495653
	288 48 1 -9.207395513855447 -7.892252168002182 -2.4990635965584547
	289 49 1 1.3202203483337736 2.6359908806783574 2.502747842025147
	290 49 2 1.3193199538218972 2.6338358810436886 1.5040072168218543
	291 49 2 1.319958754915617 2.63539974586484 0.5012157441964072
	292 49 2 1.315911915985202 2.6348702127598775 -0.4979437115275829
	293 49 2 1.3202607779097815 2.6358781850061543 -1.4973312395300238
	294 49 1 1.3176766944374896 2.6351438950730475 -2.496453151522438
	295 50 1 -6.575535953955364 -5.25894577446514 2.5028865929262243
	296 50 2 -6.576367151021853 -5.260573354068804 1.5044449032900968
	297 50 2 -6.577113612753916 -5.25894831543779 0.5025244478187909
	298 50 2 -6.5785206736672075 -5.260912984800279 -0.4985440180117706
	299 50 2 -6.576307943197735 -5.258891345460165 -1.4991027223638977
	300 50 1 -6.5765712452995935 -5.260245383478166 -2.496150898442496
	301 51 1 -10.521610904661177 10.529068828879858 2.5046080900943117
	302 51 2 -10.524632994661955 10.530137388330271 1.5038186272915888
	303 51 2 -10.523559394569826 10.52718473306732 0.5019310214783014
	304 51 2 -10.524861538882487 10.53115018257001 -0.4967768876951227
	305 51 2 -10.521770600289873 10.527796588321856 -1.497855299707071
	306 51 1 -10.52347892784519 10.528089430390635 -2.4977175018642304
	307 52 1 3.9503649563386385 -5.263016464865089 2.501699055774486
	308 52 2 3.9473695295511844 -5.260745206626833 1.503040003325402
	309 52 2 3.947833373352961 -5.261947422726117 0.5040199591052951
	310 52 2 3.9515698288518806 -5.26121922846549 -0.49592888134729385
	311 52 2 3.9487541223177933 -5.259627353625274 -1.4972727168817144
	312 52 1 3.949568916447146 -5.259875683355973 -2.499933046604514
	313 53 1 10.527128006687224 7.896205959427203 2.503402813048848
	314 53 2 10.52984696604049 7.898140646226193 1.5038380855328186
	315 53 2 10.526713547278751 7.89526628664734 0.5042767558013106
	316 53 2 10.528099978238489 7.89757869855768 -0.49748248597133293
	317 53 2 10.529449102330371 7.895121575661403 -1.496151048868168
	318 53 1 10.5269328011145 7.898143714414433 -2.4979892895042464
	319 54 1 -11.839643954977586 -6.57558889974925 2.5018550137534783
	320 54 2 -11.841875075801138 -6.574126310662446 1.5026133844970395
	321 54 2 -11.838394539952592 -6.576290894252433 0.5040984345133499
	322 54 2 -11.839282182262457 -6.578333584029118 -0.496790467176721
	323 54 2 -11.84124155981071 -6.574829097745971 -1.4965946919976358
	324 54 1 -11.83740621996718 -6.575801964473347 -2.4988741845127262
	325 55 1 7.897522529834389 9.214385177174274 2.503559441487625
	326 55 2 7.89644832563527 9.213803071542493 1.5046763453065053
	327 55 2 7.89816089232076 9.212362822800737 0.5045537916519172
	328 55 2 7.898874963068904 9.21480223459081 -0.4994657931165335
	329 55 2 7.896190986273466 9.214476954802775 -1.4986259625205767
	330 55 1 7.895105371783052 9.213942645851837 -2.4960036502176046
	331 56 1 -6.575738529380352 -6.577223151738929 2.5027988665948375
	332 56 2 -6.5788397686638165 -6.576134060142289 1.5042840058735754
	333 56 2 -6.5785571022459814 -6.577030771438315 0.5008243185876324
	334 56 2 -6.577047328937888 -6.57888233005418 -0.4958611854008443
	335 56 2 -6.576466151869347 -6.5767677780932425 -1.4969910264218178
	336 56 1 -6.5746972273997795 -6.5774910647969325 -2.4986624151379737
	337 57 1 -10.526068318435122 -5.2618258992681755 2.5003310592410237
	338 57 2 -10.526107997037814 -5.260394241925789 1.5009191744370178
	339 57 2 -10.525944500863355 -5.258574321029775 0.5007436694623532
	340 57 2 -10.525841635520063 -5.2583045044452055 -0.4966651651804918
	341 57 2 -10.522687019265334 -5.26034187475774 -1.499648051429399
	342 57 1 -10.52210640327162 -5.261067749715815 -2.498037660878119
	343 58 1 5.263834440956863 -7.894170742676106 2.5026112296645513
	344 58 2 5.266001612684687 -7.8921434143915326 1.503065623389771
	345 58 2 5.267546112052279 -7.89221581788054 0.5018957383934993
	346 58 2 5.2644407582497434 -7.893202608892988 -0.4971959647332048
	347 58 2 5.267134756442673 -7.892531236955603 -1.499796188363457
	348 58 1 5.264098667255555 -7.894283580938138 -2.4983332829298512
	349 59 1 0.003421883290354713 -6.57599379476153 2.503310637949791
	350 59 2 0.0022729756546022955 -6.578398465736298 1.5014812797751966
	351 59 2 0.002554802394607251 -6.57646154359569 0.5012183069394147
	352 59 2 0.004126507790834293 -6.576780801741119 -0.4957727193741966
	353 59 2 0.0013274631516575575 -6.574237670491688 -1.4994407132679939
	354 59 1 0.0038459124525737783 -6.578846436156005 -2.4988183966822923
	355 60 1 -10.521963022952132 3.9491189460516893 2.5046623974652937
	356 60 2 -10.521668704470569 3.9513693839371005 1.5019805272461242
	357 60 2 -10.522024446956504 3.9496539427372768 0.5006308609754282
	358 60 2 -10.522055997629087 3.951449654574742 -0.4993221727977385
	359 60 2 -10.52198315688879 3.9499632363181516 -1.496282046207439
	360 60 1 -10.524974909369686 3.948445728471741 -2.4957584359254614
	361 61 1 -11.839104194167602 2.632317474696464 2.5018293504312585
	362 61 2 -11.837810084066788 2.6339203652769916 1.501684264478062
	363 61 2 -11.840400493833476 2.6357021683795905 0.502271495137699
	364 61 2 -11.837363495644222 2.6331399481229285 -0.4962175983541546
	365 61 2 -11.840676735694442 2.6354181413782998 -1.4999120101176135
	366 61 1 -11.841456158250088 2.6328752319010684 -2.495649540176843
	367 62 1 -7.8931243502235295 -11.839687635451892 2.5005352226002238
	368 62 2 -7.891903450675165 -11.841625290488178 1.5007080116891156
	369 62 2 -7.890731980129307 -11.840885711726683 0.5003062685554573
	370 62 2 -7.891727717704087 -11.841372762377793 -0.499735916381281
	371 62 2 -7.890584080522618 -11.840119349053126 -1.4956726246196412
	372 62 1 -7.891016684764998 -11.841100443007946 -2.49957594352057
	373 63 1 -2.630722161106386 -10.523842888651346 2.501788740697863
	374 63 2 -2.6274190371525754 -10.523969585258415 1.502773748502219
	375 63 2 -2.6296416861461336 -10.522541287781857 0.5034446989564308
	376 63 2 -2.628150085698045 -10.522457817531672 -0.4980069693564145
	377 63 2 -2.630983518162222 -10.522226122252942 -1.4982723875721946
	378 63 1 -2.6281201342881384 -10.52137345992681 -2.496491191322776
	379 64 1 5.267691323392498 -11.842038488414723 2.503018587349267
	380 64 2 5.263644508197783 -11.837742740003774 1.5048012387651564
	381 64 2 5.26332866262452 -11.841438956406051 0.504163805175747
	382 64 2 5.266592326871789 -11.837196974274965 -0.4962174540257378
	383 64 2 5.266128845109464 -11.839409046889363 -1.4999506632014625
	384 64 1 5.267076968257923 -11.840185254225856 -2.4994667340024246
	385 65 1 -11.839371089172332 -9.208676502088915 2.5030292897747626
	386 65 2 -11.842021902524284 -9.2097014352316 1.5026991546490929
	387 65 2 -11.839055726076776 -9.21011524499311 0.5031818893772247
	388 65 2 -11.83789915741606 -9.209092397659914 -0.497393346106799
	389 65 2 -11.83757466678328 -9.207011517363245 -1.4989663883602076
	390 65 1 -11.837272799782903 -9.208815940569663 -2.495878987795855
	391 66 1 9.212788903168091 -10.522366951662665 2.504604613370654
	392 66 2 9.215039932459032 -10.522292777170412 1.5016148616545004
	393 66 2 9.215089464111793 -10.525549090603223 0.5013009748831134
	394 66 2 9.213758081909832 -10.522574883872473 -0.4997483185840223
	395 66 2 9.211870636649586 -10.524470623405385 -1.4957637673781954
	396 66 1 9.210535902577114 -10.521865811572972 -2.4983263472076587
	397 67 1 -5.260075026968128 -5.2584790908007 2.500307992724487
	398 67 2 -5.260431627464495 -5.262046807276593 1.5035112374300654
	399 67 2 -5.259068803088385 -5.261926647517239 0.5042994728563472
	400 67 2 -5.262270827384184 -5.260757533391029 -0.49934358694400605
	401 67 2 -5.2616203112007565 -5.261287260297152 -1.496523665424797
	402 67 1 -5.261573644140836 -5.2605096181111 -2.496743398934363
	403 68 1 7.898665518716854 -9.209058623643394 2.5002817471953023
	404 68 2 7.895922102489634 -9.207796580903782 1.5043883862888214
	405 68 2 7.89802456644985 -9.207489921737132 0.500158862125342
	406 68 2 7.897227026201243 -9.208871806799158 -0.4982629178667513
	407 68 2 7.899533782332772 -9.209708978764626 -1.4995581614112075
	408 68 1 7.896262287908645 -9.207312824078038 -2.498651957076084
	409 69 1 9.214055420091574 3.950843880400408 2.5021909703803114
	410 69 2 9.214699812253508 3.9489873387632297 1.5031159689678528
	411 69 2 9.213226430651531 3.947726891665989 0.5017361288453579
	412 69 2 9.213342008551894 3.952248708276321 -0.49608174176563785
	413 69 2 9.212930850770029 3.9483507734154824 -1.4986501876494553
	414 69 1 9.210738435899067 3.9502763251131903 -2.497878848865662
	415 70 1 7.898029555841683 10.528973102139268 2.502083920690943
	416 70 2 7.896496971980048 10.526518900706288 1.5049148353528943
	417 70 2 7.895112828547695 10.526443119922819 0.5010765145900303
	418 70 2 7.8954177733386 10.530287953659295 -0.49924185167769675
	419 70 2 7.89643659244012 10.526382031378601 -1.495342154561468
	420 70 1 7.896342044078085 10.530530181537204 -2.4951903257932697
	421 71 1 -6.575310108316964 -11.840801553886626 2.5024607273736827
	422 71 2 -6.575034108725976 -11.838612032372641 1.504137858491154
	423 71 2 -6.576224497207445 -11.838817750132147 0.5018159811202627
	424 71 2 -6.5779903369848185 -11.838619061829027 -0.499985588294731
	425 71 2 -6.575027963714557 -11.842069097055905 -1.4969159953968418
	426 71 1 -6.575974299167751 -11.841577701053902 -2.497038988541
	427 72 1 -9.206737080473108 -2.628898987577337 2.503363802753079
	428 72 2 -9.206982957225947 -2.6305493979564933 1.5046330825320666
	429 72 2 -9.208888608544267 -2.6286604375879556 0.500515914441574
	430 72 2 -9.205544290704278 -2.628308241825709 -0.4976910718326591
	431 72 2 -9.20769571705802 -2.6314430057569576 -1.498799601769682
	432 72 1 -9.205652870506555 -2.631173789768275 -2.4992914955297714
	433 73 1 11.844970649463734 -11.83823540253119 2.504264365801421
	434 73 2 11.846411404572107 -11.838304152375871 1.5017382886787336
	435 73 2 11.845013168927421 -11.838039647565692 0.5006942292075723
	436 73 2 11.84251236602367 -11.839812337178671 -0.4984482983178572
	437 73 2 11.842123936808028 -11.839520945569449 -1.4981351111178896
	438 73 1 11.846520935879605 -11.8404343830294 -2.4966866446820926
	439 74 1 -7.891896450203121 7.896235175155954 2.50233806028213
	440 74 2 -7.892898542301335 7.895924772355135 1.5004406126895464
	441 74 2 -7.894476235476199 7.8958503577168235 0.5004165964255741
	442 74 2 -7.893983685879185 7.89536144153272 -0.49813350559882613
	443 74 2 -7.893545972850218 7.894758886436875 -1.4998354394114033
	444 74 1 -7.889786574028487 7.895962564522988 -2.499795861993036
	445 75 1 -1.3126594247351697 -10.52355758423673 2.501944257596084