LAMMPS (29 Aug 2024)
OMP_NUM_THREADS environment is not set. Defaulting to 1 thread. (src/comm.cpp:98)
  using 1 OpenMP thread(s) per MPI task
processors * * 1

units           lj
atom_style      angle
dimension       3
boundary        p p p


read_data ./in.data
Reading data file ...
  orthogonal box = (-12.5 -12.5 -25) to (12.5 12.5 25)
  1 by 1 by 1 MPI processor grid
  reading atoms ...
  2880 atoms
  scanning bonds ...
  1 = max bonds/atom
  scanning angles ...
  1 = max angles/atom
  orthogonal box = (-12.5 -12.5 -25) to (12.5 12.5 25)
  1 by 1 by 1 MPI processor grid
  reading bonds ...
  2400 bonds
  reading angles ...
  960 angles
Finding 1-2 1-3 1-4 neighbors ...
  special bond factors lj:    0        0        0       
  special bond factors coul:  0        0        0       
     2 = max # of 1-2 neighbors
     2 = max # of 1-3 neighbors
     3 = max # of 1-4 neighbors
     5 = max # of special neighbors
  special bonds CPU = 0.001 seconds
  read_data CPU = 0.012 seconds
special_bonds lj 0.0 1.0 1.0
Finding 1-2 1-3 1-4 neighbors ...
  special bond factors lj:    0        1        1       
  special bond factors coul:  0        0        0       
     2 = max # of 1-2 neighbors
     2 = max # of 1-3 neighbors
     3 = max # of 1-4 neighbors
     5 = max # of special neighbors
  special bonds CPU = 0.000 seconds
comm_style tiled
neighbor 1. bin
neigh_modify every 1 delay 1
special_bonds lj 0 1 1


include ./in.interaction.lmp
pair_style cosine/squared 2.622462048309373
bond_style fene
angle_style harmonic
pair_coeff 1 1 0.8333333333333334 1.0663389458939043 1.0663389458939043 wca
WARNING: Cosine/squared set to WCA only (cutoff = sigma) (src/EXTRA-PAIR/pair_cosine_squared.cpp:158)
pair_coeff 1 2 0.8333333333333334 1.0663389458939043 1.0663389458939043 wca
WARNING: Cosine/squared set to WCA only (cutoff = sigma) (src/EXTRA-PAIR/pair_cosine_squared.cpp:158)
pair_coeff 2 2 0.8333333333333334 1.122462048309373 2.622462048309373 wca
bond_coeff 1 30.0 1.5 1.0 1.0
angle_coeff 1 5.0 180.0
angle_coeff 2 0.0 180.0

# initial relaxation

dump dump all atom 10 out.0.relax.traj.bin
thermo 10
thermo_style custom step dt time cpu fmax fnorm temp ke pe ebond eangle epair pxx pyy pzz
thermo_modify flush yes

min_style cg
minimize 1e-4 1e-6 1000 10000

CITE-CITE-CITE-CITE-CITE-CITE-CITE-CITE-CITE-CITE-CITE-CITE-CITE

Your simulation uses code contributions which should be cited:
- Type Label Framework: https://doi.org/10.1021/acs.jpcb.3c08419
The file /dev/null lists these citations in BibTeX format.

CITE-CITE-CITE-CITE-CITE-CITE-CITE-CITE-CITE-CITE-CITE-CITE-CITE

Switching to 'neigh_modify every 1 delay 0 check yes' setting during minimization
Generated 0 of 1 mixed pair_coeff terms from geometric mixing rule
Neighbor list info ...
  update: every = 1 steps, delay = 0 steps, check = yes
  max neighbors/atom: 2000, page size: 100000
  master list distance cutoff = 3.622462
  ghost atom cutoff = 3.622462
  binsize = 1.811231, bins = 14 14 28
  1 neighbor lists, perpetual/occasional/extra = 1 0 0
  (1) pair cosine/squared, perpetual
      attributes: half, newton on
      pair build: half/bin/newton
      stencil: half/bin/3d
      bin: standard
Per MPI rank memory allocation (min/avg/max) = 6.737 | 6.737 | 6.737 Mbytes
   Step           Dt            Time           CPU            Fmax          Fnorm           Temp          KinEng         PotEng         E_bond        E_angle         E_pair          Pxx            Pyy            Pzz      
         0   0.005          0              0              1.4171563e+10  2.961233e+10   0              0              258210.28      17.938692      4.1692813e-05  258192.34      236816.67      48755.904      7.6107917    
        10   0.005          0.05           0.04496825     777.41347      10088.134      0              0              18.285063      17.579033      0.00028619831  0.7057436      3.189144       3.3276031     -2.3456068    
        20   0.005          0.1            0.066755792    167.21442      689.0458       0              0              12.692019      16.886819      0.0035466058  -4.1983469      0.18316266     0.22706021    -0.84814479   
        30   0.005          0.15           0.092834708    98.808099      363.81872      0              0              12.106796      16.858012      0.0094921736  -4.7607079     -0.31123155    -0.29791223    -0.014517929  
        40   0.005          0.2            0.13000708     37.196166      184.30028      0              0              11.94723       16.852609      0.0096410821  -4.9150204     -0.37645646    -0.37677384    -0.024197125  
        50   0.005          0.25           0.16795988     48.310648      184.39471      0              0              11.844067      16.850758      0.0089431885  -5.0156342     -0.38543444    -0.38874178    -0.036390993  
        60   0.005          0.3            0.20643933     38.410947      217.10277      0              0              11.788509      16.849491      0.010605502   -5.0715866     -0.38661687    -0.38990117    -0.11821841   
        70   0.005          0.35           0.24953383     51.791461      198.81169      0              0              11.69873       16.850786      0.014055099   -5.1661111     -0.36808216    -0.37026947    -0.042649565  
        80   0.005          0.4            0.28865212     15.459757      85.797726      0              0              11.636145      16.848448      0.015695917   -5.227999      -0.36506615    -0.36822503    -0.053912214  
        90   0.005          0.45           0.3319035      67.083012      201.81612      0              0              11.541421      16.85037       0.021531615   -5.3304809     -0.35543914    -0.34651066    -0.057714146  
       100   0.005          0.5            0.37164663     67.663946      193.80216      0              0              11.470708      16.850354      0.02388451    -5.4035304     -0.34013015    -0.32850773    -0.047035358  
       110   0.005          0.55           0.41151208     19.611298      76.304257      0              0              11.415578      16.849163      0.026048345   -5.459633      -0.33429589    -0.32198318    -0.034686484  
       120   0.005          0.6            0.45623696     32.232774      158.57731      0              0              11.358146      16.849008      0.029350031   -5.5202125     -0.32844062    -0.31309555    -0.050660101  
       130   0.005          0.65           0.49827883     32.709085      160.68368      0              0              11.300118      16.849435      0.032200232   -5.5815173     -0.31003105    -0.29629113    -0.022222681  
       140   0.005          0.7            0.54343354     39.010796      154.54586      0              0              11.251469      16.848927      0.033706009   -5.6311646     -0.30315894    -0.28922672    -0.023479192  
       150   0.005          0.75           0.58503254     24.524895      120.91865      0              0              11.221315      16.848766      0.032746945   -5.6601984     -0.29735861    -0.28440546    -0.012460518  
       160   0.005          0.8            0.63050213     30.263016      125.05725      0              0              11.186551      16.848538      0.035733234   -5.6977203     -0.28887586    -0.27709874    -0.010503928  
       170   0.005          0.85           0.67237671     22.196052      93.903099      0              0              11.159369      16.848199      0.03543725    -5.7242679     -0.28452115    -0.27281423    -0.0055244437 
       180   0.005          0.9            0.71762754     34.70333       110.51905      0              0              11.134821      16.847914      0.035405073   -5.7484977     -0.27458539    -0.26236785    -0.0061970646 
       190   0.005          0.95           0.75954008     21.244388      91.941371      0              0              11.11284       16.847427      0.03618133    -5.7707675     -0.26693244    -0.25682431    -0.0047314594 
       200   0.005          1              0.80553575     26.160489      94.46438       0              0              11.094171      16.847123      0.035484663   -5.7884369     -0.2613172     -0.24961343    -0.0055261227 
       210   0.005          1.05           0.84726196     29.937476      82.08787       0              0              11.07944       16.84683       0.035167101   -5.8025573     -0.25477873    -0.24780477    -0.0024026437 
       220   0.005          1.1            0.89295954     22.372329      86.831198      0              0              11.065832      16.846809      0.035727622   -5.8167048     -0.25306744    -0.24807006    -0.0035131426 
       223   0.005          1.115          0.90782179     20.923616      70.641879      0              0              11.062271      16.846768      0.035539375   -5.8200357     -0.25251671    -0.24770913    -0.0037225382 
Loop time of 0.907932 on 1 procs for 223 steps with 2880 atoms

99.2% CPU use with 1 MPI tasks x 1 OpenMP threads

Minimization stats:
  Stopping criterion = energy tolerance
  Energy initial, next-to-last, final = 
      258210.281709385   11.0632828058732    11.062271451249
  Force two-norm initial, final = 2.961233e+10 70.641879
  Force max component initial, final = 1.4171563e+10 20.923616
  Final line search alpha, max atom move = 0.0094706199 0.19815962
  Iterations, force evaluations = 223 433

MPI task timing breakdown:
Section |  min time  |  avg time  |  max time  |%varavg| %total
---------------------------------------------------------------
Pair    | 0.82226    | 0.82226    | 0.82226    |   0.0 | 90.56
Bond    | 0.022674   | 0.022674   | 0.022674   |   0.0 |  2.50
Neigh   | 0.037299   | 0.037299   | 0.037299   |   0.0 |  4.11
Comm    | 0.0034524  | 0.0034524  | 0.0034524  |   0.0 |  0.38
Output  | 0.0027136  | 0.0027136  | 0.0027136  |   0.0 |  0.30
Modify  | 0          | 0          | 0          |   0.0 |  0.00
Other   |            | 0.01953    |            |       |  2.15

Nlocal:           2880 ave        2880 max        2880 min
Histogram: 1 0 0 0 0 0 0 0 0 0
Nghost:           1964 ave        1964 max        1964 min
Histogram: 1 0 0 0 0 0 0 0 0 0
Neighs:         123107 ave      123107 max      123107 min
Histogram: 1 0 0 0 0 0 0 0 0 0

Total # of neighbors = 123107
Ave neighs/atom = 42.745486
Ave special neighs/atom = 4
Neighbor list builds = 10
Dangerous builds = 0

fix langevin all langevin 1.0 1.0 1.0 1 zero yes
velocity all create 1.0 1
velocity all zero linear
timestep        0.001
fix f_nve all nve/limit 0.01
run 10
Generated 0 of 1 mixed pair_coeff terms from geometric mixing rule
Per MPI rank memory allocation (min/avg/max) = 5.722 | 5.722 | 5.722 Mbytes
   Step           Dt            Time           CPU            Fmax          Fnorm           Temp          KinEng         PotEng         E_bond        E_angle         E_pair          Pxx            Pyy            Pzz      
       223   0.001          1.115          0              82.754052      4141.0926      1              1.4994792      11.062271      16.846768      0.035539375   -5.8200357     -0.16151272    -0.15577139     0.089719735  
       230   0.001          1.122          0.012079666    115.49326      4236.1991      0.96499093     1.4469838      11.116466      16.888264      0.036118346   -5.8079162     -0.15657182    -0.14552918     0.11126816   
       233   0.001          1.125          0.017696083    130.56269      4355.4308      0.93022778     1.3948572      11.16888       16.927875      0.037007952   -5.796003      -0.14768699    -0.13475234     0.13203425   
Loop time of 0.0177517 on 1 procs for 10 steps with 2880 atoms

Performance: 48671.488 tau/day, 563.327 timesteps/s, 1.622 Matom-step/s
99.0% CPU use with 1 MPI tasks x 1 OpenMP threads

MPI task timing breakdown:
Section |  min time  |  avg time  |  max time  |%varavg| %total
---------------------------------------------------------------
Pair    | 0.016281   | 0.016281   | 0.016281   |   0.0 | 91.71
Bond    | 0.00045442 | 0.00045442 | 0.00045442 |   0.0 |  2.56
Neigh   | 0          | 0          | 0          |   0.0 |  0.00
Comm    | 5.9835e-05 | 5.9835e-05 | 5.9835e-05 |   0.0 |  0.34
Output  | 0.00017738 | 0.00017738 | 0.00017738 |   0.0 |  1.00
Modify  | 0.00073488 | 0.00073488 | 0.00073488 |   0.0 |  4.14
Other   |            | 4.454e-05  |            |       |  0.25

Nlocal:           2880 ave        2880 max        2880 min
Histogram: 1 0 0 0 0 0 0 0 0 0
Nghost:           1954 ave        1954 max        1954 min
Histogram: 1 0 0 0 0 0 0 0 0 0
Neighs:         123219 ave      123219 max      123219 min
Histogram: 1 0 0 0 0 0 0 0 0 0

Total # of neighbors = 123219
Ave neighs/atom = 42.784375
Ave special neighs/atom = 4
Neighbor list builds = 0
Dangerous builds = 0
unfix f_nve
unfix langevin
undump dump

# main run
timestep        0.01
dump dump all atom 1000 out.1.main.traj.bin
fix langevin all langevin 1.0 1.0 1.0 1 zero yes
fix f_nve all nve
thermo 100
run 100000
Generated 0 of 1 mixed pair_coeff terms from geometric mixing rule
Per MPI rank memory allocation (min/avg/max) = 5.612 | 5.612 | 5.612 Mbytes
   Step           Dt            Time           CPU            Fmax          Fnorm           Temp          KinEng         PotEng         E_bond        E_angle         E_pair          Pxx            Pyy            Pzz      
       233   0.01           1.125          0              86.662594      1804.6834      0.93022778     1.3948572      11.16888       16.927875      0.037007952   -5.796003      -0.14768699    -0.13475234     0.13203425   
       300   0.01           1.795          0.12240071     165.14423      2623.7013      0.7355606      1.1029578      12.126303      17.143741      0.18472235    -5.20216       -0.021805209   -0.026224261    0.015853561  
       400   0.01           2.795          0.31096992     166.36189      2755.1682      0.89703031     1.3450783      12.437517      17.217218      0.22189869    -5.001599      -0.049732834   -0.020672615    0.038255354  
       500   0.01           3.795          0.49516871     175.99236      2861.5501      0.95224683     1.4278743      12.573695      17.256743      0.24185296    -4.924901      -0.038537185   -0.041420135   -0.040027811  
       600   0.01           4.795          0.68408771     167.28907      2985.9762      0.99808706     1.4966107      12.683553      17.293899      0.23984452    -4.8501909     -0.004632707   -0.036704202    0.037505859  
       700   0.01           5.795          0.87247867     185.13319      2866.7495      1.0112923      1.5164117      12.687508      17.28032       0.23952815    -4.8323396     -0.05200502    -0.0025262621  -0.059891826  
       800   0.01           6.795          1.0597709      166.88566      2886.3712      0.99383553     1.4902357      12.684555      17.257857      0.23665722    -4.8099585     -0.019270964   -0.021615135   -0.022786169  
       900   0.01           7.795          1.2480141      192.56546      2926.9676      0.96599348     1.4484871      12.736299      17.281095      0.26206093    -4.8068562     -0.037772897    0.013700581   -0.0071042038 
      1000   0.01           8.795          1.4358357      201.92518      2894.2773      1.0029933      1.5039676      12.69205       17.263658      0.25153693    -4.8231453     -0.014497156    0.0023714072   0.0052430785 
      1100   0.01           9.795          1.6242149      179.51646      2997.5946      1.0050704      1.5070822      12.711036      17.282449      0.25682754    -4.8282404     -0.019541672    0.047999121    0.056696238  
      1200   0.01           10.795         1.8113765      210.12894      2952.7209      0.97262572     1.458432       12.695939      17.279166      0.24620682    -4.8294341     -0.024932889   -0.022546926    0.0024454064 
      1300   0.01           11.795         1.9980345      177.07131      2961.3269      0.99931909     1.4984582      12.713754      17.281247      0.25546193    -4.8229549     -0.016080663    0.027451927    0.034564762  
      1400   0.01           12.795         2.1853158      204.68821      2930.9719      0.99143568     1.4866371      12.71021       17.255646      0.25407274    -4.7995088     -0.0041829145   0.0011922714   0.00983334   
      1500   0.01           13.795         2.3722684      182.10037      2854.372       1.0020043      1.5024845      12.704928      17.260502      0.26066116    -4.8162349     -0.027215401   -0.036359961   -0.028417896  
      1600   0.01           14.795         2.5584681      209.61467      2959.7005      0.99769316     1.4960201      12.750455      17.277237      0.2682622     -4.7950444     -0.017054592   -0.012025485    0.028441756  
      1700   0.01           15.795         2.7756198      183.63016      2948.1094      1.0070955      1.5101188      12.716295      17.27747       0.25565164    -4.8168269     -0.00023875065 -0.020820122   -0.023829058  
      1800   0.01           16.795         2.9672496      197.41603      2985.1323      0.99301541     1.4890059      12.721643      17.284328      0.24776838    -4.810454       0.034240204    0.0035519409   0.019588649  
      1900   0.01           17.795         3.1568302      165.83229      2961.3086      1.0058281      1.5082183      12.757329      17.286227      0.25157426    -4.7804728      0.0010693909  -0.00099293895 -0.016408972  
      2000   0.01           18.795         3.343943       213.86867      2947.353       0.98951        1.4837496      12.780501      17.288724      0.25956987    -4.7677928     -0.017405771   -0.018008404   -0.017849918  
      2100   0.01           19.795         3.5954126      185.94419      2958.7979      1.0038372      1.505233       12.791484      17.30414       0.25014813    -4.7628038      0.0087342404  -0.045794194   -0.0033303006 
      2200   0.01           20.795         3.7850727      184.53323      2944.141       1.0385987      1.5573572      12.74899       17.275534      0.24738587    -4.7739296      0.019415957   -0.0020920812  -0.0086779551 
      2300   0.01           21.795         3.9732374      196.13422      2955.9578      0.98286513     1.4737858      12.772125      17.28307       0.25033985    -4.7612843      0.012322778   -0.0038054229  -0.025508908  
      2400   0.01           22.795         4.1612647      220.56603      2907.7292      0.99117118     1.4862405      12.731892      17.267545      0.26057701    -4.7962305     -0.045451973   -0.046367939   -0.063358092  
      2500   0.01           23.795         4.3492863      223.91642      2872.5125      0.99529425     1.492423       12.773618      17.277038      0.25403248    -4.7574528     -0.0073326714  -0.030425555   -0.12047992   
      2600   0.01           24.795         4.5374395      193.37207      2952.5977      1.0045961      1.5063709      12.769864      17.292076      0.26583309    -4.7880443     -0.0098681614  -0.0039179767  -0.036868777  
      2700   0.01           25.795         4.725743       214.86462      2978.0541      1.0246628      1.5364606      12.737351      17.281208      0.24922249    -4.7930794      0.004295232    0.0022448449   0.04455584   
      2800   0.01           26.795         4.9133697      226.20111      2876.1443      0.9950111      1.4919984      12.723278      17.270062      0.25665501    -4.8034395     -0.026475549   -0.0074671913  -0.060247031  
      2900   0.01           27.795         5.1024453      196.70195      2875.6065      1.0098468      1.5142442      12.691435      17.259296      0.25275705    -4.8206173     -0.021283353   -0.029625589   -0.018579939  
      3000   0.01           28.795         5.2900858      192.11571      2889.3119      1.0222109      1.5327839      12.741049      17.264381      0.26579305    -4.7891251      0.022481459    0.012361404   -0.0082463979 
      3100   0.01           29.795         5.478582       194.73656      2883.5703      1.0195274      1.5287602      12.678248      17.267945      0.25007004    -4.8397669     -0.011445442    0.0082886763   0.035983556  
      3200   0.01           30.795         5.6680405      162.74279      2895.4685      0.98752744     1.4807768      12.72147       17.278983      0.25290712    -4.8104198     -0.0057324458  -0.0064820629  -0.02079504   
      3300   0.01           31.795         5.8552029      186.89226      2971.7664      1.0013698      1.5015331      12.758538      17.28911       0.26323337    -4.7938054      0.022685314    0.040522139   -0.0044390122 
      3400   0.01           32.795         6.044144       147.30621      2866.9279      0.99456763     1.4913334      12.718312      17.261976      0.24218754    -4.7858515      0.012461505    0.022929596    0.0011621825 
      3500   0.01           33.795         6.2331957      188.32067      3004.8158      1.0208203      1.5306988      12.757102      17.282847      0.256944      -4.7826899      0.014331972    0.02733217     0.038370041  
      3600   0.01           34.795         6.4229306      274.94499      2984.9139      0.96438493     1.4460751      12.74573       17.277866      0.26140175    -4.7935379      0.0077854815   0.0063518432  -0.01475603   
      3700   0.01           35.795         6.6189309      156.70434      2895.759       1.0170712      1.525077       12.713953      17.265199      0.25997031    -4.8112168     -0.01092841    -0.010842438    0.00737355   
      3800   0.01           36.795         6.8048922      177.08031      2903.2324      1.0162739      1.5238815      12.709768      17.263253      0.25706242    -4.8105478      4.4512099e-05 -0.023331644   -0.033480017  
      3900   0.01           37.795         6.9982324      158.13926      2862.8295      1.0009949      1.500971       12.7389        17.25825       0.26508616    -4.7844368      0.0065274967  -0.0037283337  -0.043278408  
      4000   0.01           38.795         7.1872772      196.73956      2926.5937      1.0053821      1.5075496      12.697483      17.26444       0.2487775     -4.8157338     -0.011709016    0.0097122944   0.018602495  
      4100   0.01           39.795         7.3746431      174.98044      2932.3288      0.97575974     1.4631314      12.734364      17.272972      0.25896494    -4.7975733     -0.0018983986  -0.030239364   -0.022175593  
      4200   0.01           40.795         7.5637248      205.2868       2959.2575      0.99649354     1.4942213      12.708809      17.284018      0.24325422    -4.818463       0.01330698     0.0041573268   0.036258925  
      4300   0.01           41.795         7.753754       190.0288       2981.9434      1.008838       1.5127315      12.79559       17.275986      0.26784754    -4.7482435      0.019058934   -0.0092059137  -0.012487365  
      4400   0.01           42.795         7.9424528      186.09903      2972.9207      0.99087497     1.4857964      12.791436      17.290474      0.2531051     -4.7521434     -0.0099318296   0.013001812   -0.047018685  
      4500   0.01           43.795         8.1291865      172.37708      2933.5247      1.0030867      1.5041076      12.758822      17.276652      0.24998162    -4.7678117     -0.012262122    0.0092966859   0.02130001   
      4600   0.01           44.795         8.3175777      186.33722      2904.3885      1.0060245      1.5085127      12.763949      17.271217      0.2513998     -4.7586681      0.0026927335   0.0064787347  -0.0010457427 
      4700   0.01           45.795         8.5040277      180.04024      2909.6636      0.98042939     1.4701334      12.760902      17.269411      0.25704696    -4.7655557     -0.010390501   -0.0036507161  -0.0035654833 
      4800   0.01           46.795         8.691849       194.33183      2931.9248      1.0062299      1.5088207      12.743808      17.260116      0.26530789    -4.7816159     -0.0043031091  -0.0057159063   0.021220599  
      4900   0.01           47.795         8.8921894      225.95846      2916.6866      1.0130454      1.5190405      12.7391        17.2715        0.25028157    -4.7826813      0.0021572456  -0.026662936    0.031705404  
      5000   0.01           48.795         9.0941331      275.38099      2878.9168      1.0074651      1.5106729      12.727159      17.264592      0.26425139    -4.8016839     -0.035046176   -0.028538997   -0.022194797  
      5100   0.01           49.795         9.2837341      171.24696      2851.0361      1.0047557      1.5066103      12.706315      17.253923      0.26008575    -4.8076936     -0.011939757   -0.0075229987  -0.03224517   
      5200   0.01           50.795         9.475707       222.9983       2962.3449      1.0206959      1.5305123      12.743253      17.280233      0.2608064     -4.7977859     -0.0049776661  -0.016308673    0.0046196634 
      5300   0.01           51.795         9.6639343      227.29992      2966.7085      1.0170845      1.5250971      12.768704      17.28608       0.25994189    -4.7773183      0.009899826   -0.028268703   -0.044080364  
      5400   0.01           52.795         9.8522312      165.7645       2937.0049      0.99613024     1.4936765      12.759579      17.28797       0.25717213    -4.7855624     -0.02116227    -0.0070293177  -0.048964647  
      5500   0.01           53.795         10.042353      225.35017      2893.5201      0.98677912     1.4796547      12.75455       17.257828      0.25208095    -4.7553584     -0.027830949   -0.0085596389  -0.0140267    
      5600   0.01           54.795         10.231053      162.29126      2901.6253      0.97635699     1.464027       12.755614      17.258568      0.25752641    -4.7604804      0.011626271    0.0075592117   0.036281014  
      5700   0.01           55.795         10.420512      184.36991      2943.8722      0.99293115     1.4888796      12.801661      17.289697      0.27549413    -4.7635304     -0.028109869   -0.0063711654  -0.00039586625
      5800   0.01           56.795         10.609601      160.8856       2952.8099      1.006231       1.5088224      12.790163      17.276324      0.27702388    -4.7631852      0.0012043216  -0.0018158661  -0.01983251   
      5900   0.01           57.795         10.798571      216.61164      2945.3756      1.0028735      1.503788       12.730075      17.243551      0.25934032    -4.7728167      0.023885402    0.019766331    0.065974782  
      6000   0.01           58.795         10.98853       164.00119      2923.2362      1.0102167      1.514799       12.737244      17.267998      0.25804479    -4.7887996     -0.040303162   -0.0015393241  -0.0097920082 
      6100   0.01           59.795         11.179353      206.5521       2962.4843      0.99764974     1.495955       12.745977      17.291098      0.26540532    -4.8105257     -0.0055319467  -0.0075480415   0.027356563  
      6200   0.01           60.795         11.370407      191.68043      2997.8085      0.98944287     1.483649       12.760788      17.289172      0.26247831    -4.7908623      0.0088113999  -0.0056715467  -0.014923513  
      6300   0.01           61.795         11.558056      182.08026      2938.5669      0.98422725     1.4758283      12.726786      17.27137       0.25265107    -4.797235      -0.02141246    -0.0044217598   0.017925791  
      6400   0.01           62.795         11.745242      166.75345      2939.0636      0.98877513     1.4826477      12.736639      17.263921      0.2572555     -4.7845383     -0.0054222733   0.027304728    0.051172992  
      6500   0.01           63.795         11.934084      151.46527      2941.1349      1.0011246      1.5011655      12.746697      17.27908       0.24643794    -4.7788208     -0.012479787    0.017335761   -0.038904395  
      6600   0.01           64.795         12.124666      210.48889      2944.3288      0.98971105     1.4840511      12.767329      17.260983      0.25508823    -4.7487422     -0.014728729    0.013458457    0.013321758  
      6700   0.01           65.795         12.312202      179.05117      3021.7102      1.0101369      1.5146792      12.761774      17.297834      0.25637493    -4.7924353     -0.049868792    0.003790611    0.028133526  
      6800   0.01           66.795         12.498222      169.15411      2896.0565      0.99784292     1.4962447      12.755803      17.277366      0.2512965     -4.7728589     -0.0013167875  -0.029436467   -0.046373456  
      6900   0.01           67.795         12.684801      175.75841      2993.0472      1.0153337      1.5224717      12.808314      17.295445      0.2656597     -4.7527906     -0.016015676   -0.028574068    0.0062129037 
      7000   0.01           68.795         12.877174      166.70557      2916.4177      1.0004741      1.50019        12.814096      17.270513      0.25898061    -4.7153983      0.007340946   -0.015280443   -0.0088398969 
      7100   0.01           69.795         13.081301      195.31732      2851.296       0.98718788     1.4802677      12.772648      17.266824      0.27451385    -4.7686892     -0.03483422    -0.0088466026  -0.026572862  
      7200   0.01           70.795         13.290443      164.49464      2823.4863      0.98170546     1.4720469      12.733042      17.257584      0.25918341    -4.783726      -0.0079863984   0.009658239   -0.058487169  
      7300   0.01           71.795         13.487103      163.31519      2907.6883      1.0119726      1.5174318      12.780143      17.283302      0.26201399    -4.7651728      0.030077293    0.0050990408  -0.041920416  
      7400   0.01           72.795         13.684632      157.10536      2919.0814      1.0272608      1.5403562      12.752115      17.268144      0.26719255    -4.783221      -0.0089941956   0.020035274    0.095443027  
      7500   0.01           73.795         13.878772      206.48134      2953.9054      0.98062339     1.4704243      12.767939      17.288603      0.26968052    -4.7903447     -0.017950107   -0.010959679    0.0055583959 
      7600   0.01           74.795         14.080988      191.28445      2965.637       0.98693429     1.4798874      12.777925      17.28795       0.23682707    -4.7468528     -0.0017200771   0.0047135051  -0.02642538   
      7700   0.01           75.795         14.279933      182.68654      2993.7625      1.0095588      1.5138124      12.792398      17.293616      0.26886032    -4.7700781     -0.030525833   -0.01736432    -0.012528205  
      7800   0.01           76.795         14.471539      182.40483      2950.7807      1.0028158      1.5037015      12.773467      17.302073      0.26602575    -4.7946312     -0.0005701245  -0.028592675   -0.052001964  
      7900   0.01           77.795         14.662019      162.79299      2909.6177      1.0088682      1.5127768      12.76087       17.269973      0.27183575    -4.7809391     -0.024195824   -0.0065009438  -0.029576104  
      8000   0.01           78.795         14.856241      178.18865      2971.686       1.0088947      1.5128165      12.756108      17.28338       0.25936648    -4.7866381      0.0015911708  -0.012428676   -0.024584062  
      8100   0.01           79.795         15.04355       189.094        2919.1537      1.0166084      1.5243831      12.76339       17.266434      0.26772156    -4.770765       0.01957646     0.018290389    0.022358633  
      8200   0.01           80.795         15.233379      182.69422      2925.3696      1.0025209      1.5032591      12.769383      17.273203      0.25694527    -4.7607654     -0.00047922265 -0.026999885   -0.033817762  
      8300   0.01           81.795         15.421516      195.18238      2912.5139      1.0165662      1.5243198      12.769341      17.271232      0.26084129    -4.7627328      0.029164127    0.0085179396   0.023270492  
      8400   0.01           82.795         15.613799      206.38119      2897.9523      1.001208       1.5012906      12.756206      17.266368      0.26784254    -4.7780042     -0.0096358265  -0.031444178   -0.0022072772 
      8500   0.01           83.795         15.824012      166.3303       2890.1001      0.99981907     1.4992079      12.776818      17.252811      0.26007461    -4.7360681     -0.013699832    0.017445538    0.04113093   
      8600   0.01           84.795         16.020095      261.41973      2952.638       0.99213156     1.4876806      12.770447      17.271517      0.24619988    -4.7472697      0.033375802    0.0047097982   0.0041200741 
      8700   0.01           85.795         16.217097      172.1414       2888.9261      0.97898389     1.467966       12.722896      17.270974      0.25879125    -4.8068693     -0.027605254   -0.048714527   -0.016261412  
      8800   0.01           86.795         16.412734      206.96472      2924.7175      0.98536669     1.4775368      12.716952      17.282645      0.24268238    -4.8083752      0.018267568   -0.0050762836  -0.053200636  
      8900   0.01           87.795         16.60958       172.24883      2936.5326      0.97966907     1.4689934      12.754328      17.266149      0.26153304    -4.7733536      0.0128163      0.0038813054   0.013091861  
      9000   0.01           88.795         16.799958      196.22089      2879.9486      1.0099701      1.5144291      12.695102      17.244647      0.24651671    -4.7960611     -0.017847346   -0.01223133    -0.0046161585 
      9100   0.01           89.795         16.996172      193.89687      2937.1742      0.98778596     1.4811645      12.754955      17.285469      0.25186939    -4.7823842     -0.018083736   -0.031343418   -0.053783986  
      9200   0.01           90.795         17.190762      185.38217      2958.1834      1.0346475      1.5514323      12.762305      17.284588      0.25951721    -4.7818005      0.0070890383  -0.019284454    0.040350396  
      9300   0.01           91.795         17.378023      234.96195      2967.0904      0.99902821     1.498022       12.791878      17.293682      0.25966565    -4.7614692     -0.023227144    0.017835539   -0.018388229  
      9400   0.01           92.795         17.568278      182.0145       2909.738       0.97948125     1.4687117      12.789442      17.269373      0.26674758    -4.7466787     -0.015769655    0.031239835   -0.033725568  
      9500   0.01           93.795         17.759377      175.64656      2935.0309      1.0051691      1.5072302      12.773955      17.282351      0.24899568    -4.7573911      0.01121821    -0.040663984   -0.037694889  
      9600   0.01           94.795         17.948785      191.66433      2967.9474      1.0344343      1.5511127      12.766497      17.261949      0.25817489    -4.7536266      0.0089885083   0.048623518    0.049463874  
      9700   0.01           95.795         18.137746      174.33606      2937.3229      1.0094215      1.5136065      12.774598      17.259417      0.26640357    -4.7512222      0.041616806    0.0095681084  -0.017777129  
      9800   0.01           96.795         18.346057      193.57811      2975.6332      0.99258488     1.4883603      12.763816      17.276642      0.27836085    -4.7911863      0.027733721    0.0018784376   0.077971026  
      9900   0.01           97.795         18.54375       238.20552      2942.8388      1.0034306      1.5046233      12.761812      17.280871      0.26430891    -4.7833678     -0.012462241   -0.01537966     0.036850857  
     10000   0.01           98.795         18.742875      185.0313       2983.73        1.0126034      1.5183777      12.805488      17.288255      0.26739091    -4.7501585      0.0078721974  -0.016680652    0.023987449  
     10100   0.01           99.795         18.932962      181.36909      2991.8432      1.0044499      1.5061516      12.734137      17.282036      0.26219373    -4.8100926      0.018471362   -0.0033077862   0.050589425  
     10200   0.01           100.795        19.122063      159.27602      2848.3479      0.9855703      1.4778421      12.737762      17.266565      0.25979285    -4.7885956     -0.0074994721  -0.043475054   -0.035381981  
     10300   0.01           101.795        19.311495      221.95501      2937.0813      1.0080334      1.5115251      12.730655      17.274923      0.24960662    -4.7938741     -0.00077768616 -0.032979418   -0.069328504  
     10400   0.01           102.795        19.499525      208.58237      2944.5312      1.0096141      1.5138954      12.752377      17.267965      0.26142072    -4.7770088      0.022497533   -0.0040168059   0.036907074  
     10500   0.01           103.795        19.690205      183.17638      2931.4156      1.0117289      1.5170664      12.748531      17.271488      0.26297815    -4.7859355     -0.010633097   -0.029735968    0.0085681698 
     10600   0.01           104.795        19.882194      174.64477      2936.5332      0.98536382     1.4775325      12.766865      17.276605      0.26886791    -4.7786079      0.015364855   -0.026569391    0.0041171508 
     10700   0.01           105.795        20.069264      151.32243      2943.4569      0.99953762     1.4987858      12.77276       17.282501      0.25181505    -4.7615557      0.015832184   -0.027458897   -0.013479434  
     10800   0.01           106.795        20.257951      151.28371      2846.3543      0.99066192     1.4854769      12.753005      17.247034      0.2421789     -4.7362076     -0.0034183839   0.0010699115  -0.051167107  
     10900   0.01           107.795        20.444753      183.04917      2975.9327      1.0071619      1.5102184      12.781498      17.269263      0.25992788    -4.747693      -0.001649537   -0.0062951733   0.01816535   
     11000   0.01           108.795        20.632133      165.8328       2908.3661      0.99491299     1.4918513      12.801536      17.265034      0.25561406    -4.7191116     -0.0099803925   0.0067825259   0.015600188  
     11100   0.01           109.795        20.817517      187.70412      2870.9037      1.0099128      1.5143431      12.740236      17.262938      0.26541723    -4.7881191     -0.013681063   -0.013629036    0.015820978  
     11200   0.01           110.795        21.009316      203.52691      2952.7359      1.0214826      1.5316918      12.758775      17.285051      0.24104608    -4.7673221     -0.029869439   -0.017239892    0.013780676  
     11300   0.01           111.795        21.20466       262.83814      2941.2982      1.0133422      1.5194856      12.804031      17.285598      0.27010751    -4.7516747     -0.033286127   -0.01640572    -0.03372306   
     11400   0.01           112.795        21.404224      270.54818      2944.5505      0.99781944     1.4962095      12.738123      17.271505      0.25495908    -4.7883419      0.0035860113   0.038725828    0.03672788   
     11500   0.01           113.795        21.594225      198.17098      2951.9027      1.0173293      1.5254641      12.731451      17.271992      0.25717767    -4.7977179      0.0030248012  -0.045074224    0.024294321  
     11600   0.01           114.795        21.788088      226.06245      2897.7131      0.9563593      1.4340408      12.754173      17.275791      0.26554912    -4.7871663     -0.0067563638   0.01219899    -0.0060780033 
     11700   0.01           115.795        21.976381      200.10074      2990.7468      1.0031365      1.5041822      12.732708      17.290013      0.2540431     -4.8113473      0.01615639     0.024983293   -0.031804636  
     11800   0.01           116.795        22.17737       223.46038      2968.0544      0.9728092      1.4587071      12.738447      17.28881       0.25638618    -4.8067496     -0.023805531   -0.017174937    0.0098659289 
     11900   0.01           117.795        22.367393      209.64203      2876.6096      0.99162349     1.4869188      12.702822      17.25276       0.25032154    -4.8002598     -0.016593856    0.012388815   -0.01521075   
     12000   0.01           118.795        22.558379      183.26689      2907.1084      1.0034904      1.5047129      12.735378      17.286232      0.24273514    -4.7935894     -0.024807863   -0.0070187487  -0.011906339  
     12100   0.01           119.795        22.750767      198.78206      2967.304       1.0140916      1.5206093      12.761897      17.268801      0.25958062    -4.7664843      0.0021310855  -0.017314944    0.0060026116 
     12200   0.01           120.795        22.94501       193.08962      2951.3856      1.023737       1.5350723      12.756283      17.275235      0.27594606    -4.7948987     -0.027445103   -0.013798149    0.017360526  
     12300   0.01           121.795        23.134492      188.59001      2952.4305      1.003703       1.5050317      12.770375      17.286343      0.25169959    -4.7676673     -0.01478579    -0.026438338   -0.040669432  
     12400   0.01           122.795        23.327625      199.01729      2952.5082      1.0069949      1.5099679      12.752518      17.278978      0.26559791    -4.792058      -0.013501174    0.0088249054  -0.0032099021 
     12500   0.01           123.795        23.512174      172.38822      2938.3113      1.0028546      1.5037596      12.761302      17.286611      0.25358606    -4.7788951      0.005237414   -0.022909916    0.029517724  
     12600   0.01           124.795        23.699643      255.8165       2914.1133      0.97263457     1.4584453      12.760895      17.266856      0.26024221    -4.7662025     -0.020997723   -0.019915011   -0.032696301  
     12700   0.01           125.795        23.886168      197.06115      2901.3866      0.98803016     1.4815306      12.721516      17.269509      0.24641573    -4.7944086     -0.016831028    0.0048119527   0.0097241114 
     12800   0.01           126.795        24.074895      144.06084      2896.961       1.0077262      1.5110645      12.746188      17.266501      0.2667255     -4.7870384     -0.017933164   -0.0084618423   0.0064730218 
     12900   0.01           127.795        24.269017      224.49186      2980.6912      1.0194587      1.5286572      12.776063      17.2864        0.2523456     -4.7626825      0.0050331488   0.0064355765   0.024732322  
     13000   0.01           128.795        24.455801      173.83074      2961.3054      1.0114185      1.516601       12.810639      17.289885      0.26732777    -4.7465744     -0.0030942977  -0.0062411518   0.058281979  
     13100   0.01           129.795        24.646512      207.73482      2905.5166      1.0299814      1.5444356      12.759818      17.269398      0.2496817     -4.7592609     -0.0016148775  -0.012575341    0.0036125971 
     13200   0.01           130.795        24.833221      198.89622      2910.3466      0.98471961     1.4765665      12.751739      17.268803      0.25408399    -4.7711475     -0.0072482672  -0.0041008501   0.017150376  
     13300   0.01           131.795        25.018841      169.93279      2885.7602      1.0138293      1.5202159      12.724205      17.26118       0.26244946    -4.7994243     -0.0051730045  -0.028099522   -0.016651907  
     13400   0.01           132.795        25.208504      175.11137      2913.6602      0.98644783     1.479158       12.771468      17.280817      0.26534414    -4.7746939     -0.0067489614  -0.029599408   -0.034115137  
     13500   0.01           133.795        25.397193      211.8317       2914.327       1.0184282      1.5271119      12.744972      17.27756       0.25804407    -4.7906326     -0.027640774   -0.0071443733  -0.034061245  
     13600   0.01           134.795        25.589692      217.51797      2887.3709      0.99569257     1.4930203      12.739895      17.270015      0.26334253    -4.7934632     -0.016769302   -0.023559965    0.02787912   
     13700   0.01           135.795        25.777534      166.8348       2928.671       1.0016491      1.5019519      12.709736      17.258769      0.25215141    -4.8011843     -0.024403241    0.035149886    0.046199607  
     13800   0.01           136.795        25.968803      198.87984      2920.5008      0.98673237     1.4795846      12.725066      17.27178       0.24124983    -4.787964       0.00035687899 -0.025423034    0.031766386  
     13900   0.01           137.795        26.160663      233.74739      2954.1203      0.96260404     1.4434047      12.739355      17.282594      0.24129916    -4.7845383     -0.0109125     -0.026541119   -0.11962091   
     14000   0.01           138.795        26.351262      200.57536      2884.7639      0.95892037     1.4378811      12.714575      17.260066      0.25358159    -4.7990732      0.0041257501  -0.011424853    0.027011855  
     14100   0.01           139.795        26.541382      158.01179      2922.7621      0.99090569     1.4858424      12.723222      17.269811      0.26930662    -4.8158954      0.012963392   -0.0049621206   0.076953529  
     14200   0.01           140.795        26.732086      158.12895      2921.7552      1.004039       1.5055355      12.74851       17.274132      0.24801379    -4.7736356      0.0028680718   0.0049401946  -0.023601535  
     14300   0.01           141.795        26.921966      222.19457      3016.3665      1.0124056      1.5180812      12.785393      17.28671       0.26344228    -4.7647592     -0.0095122901   0.002338304    0.056092364  
     14400   0.01           142.795        27.111039      172.27329      2940.55        1.0237998      1.5351665      12.772716      17.2782        0.2757262     -4.78121       -0.0132122      0.018401187    0.015411234  
     14500   0.01           143.795        27.299594      246.62102      2904.0015      1.0008838      1.5008045      12.717927      17.258869      0.24951423    -4.7904557      0.00192675     0.010818075    0.021632423  
     14600   0.01           144.795        27.492464      215.42111      2915.5938      0.99160068     1.4868846      12.733072      17.26678       0.25533072    -4.7890389     -0.0045949356  -0.014648028    0.02328447   
     14700   0.01           145.795        27.680961      189.35721      2931.9844      0.99665733     1.4944669      12.747688      17.294111      0.24789068    -4.7943138     -0.021332509   -0.0014625561  -0.060249364  
     14800   0.01           146.795        27.869394      191.43641      2969.0459      1.0046168      1.5064019      12.739468      17.273757      0.26857841    -4.8028683      0.016674493    0.020173583    0.052963156  
     14900   0.01           147.795        28.057709      171.23618      2939.4115      1.0072164      1.5103         12.74502       17.27919       0.26562541    -4.7997958     -0.012531468   -0.0071885831  -0.024587948  
     15000   0.01           148.795        28.247245      176.69142      2886.9419      0.98719886     1.4802841      12.717441      17.259217      0.24845174    -4.790228       0.017711672    0.0091803152   0.026838701  
     15100   0.01           149.795        28.434888      211.71529      2936.4597      0.96850416     1.4522518      12.703808      17.264774      0.2474345     -4.8084006      0.010625815    0.021891116    0.008812972  
     15200   0.01           150.795        28.625074      170.64304      2895.6276      0.99584132     1.4932433      12.680452      17.244599      0.26980992    -4.8339567      0.01801143     0.011693523    0.049730487  
     15300   0.01           151.795        28.814105      152.35968      2960.3807      1.0067071      1.5095364      12.713417      17.284908      0.25236771    -4.823858       0.020255204    0.021019833   -0.022902947  
     15400   0.01           152.795        29.007906      165.75409      2955.347       0.99500746     1.491993       12.745598      17.277248      0.24869744    -4.780348      -0.027366384   -0.023562106    0.016164512  
     15500   0.01           153.795        29.197199      169.16369      2937.7977      1.0119548      1.5174051      12.743437      17.287099      0.24918058    -4.7928424      0.013333883    0.0061590491  -0.002654858  
     15600   0.01           154.795        29.3882        220.14529      2932.9771      1.026913       1.5398346      12.745699      17.282162      0.25262722    -4.7890906      0.0090488838   0.001829207   -0.039021599  
     15700   0.01           155.795        29.575602      191.0824       2907.6351      1.0005617      1.5003214      12.752505      17.25498       0.26462093    -4.7670961     -0.017666767    0.01497788    -0.016789096  
     15800   0.01           156.795        29.766985      175.80104      2910.6026      0.97196045     1.4574345      12.763413      17.27632       0.25437642    -4.7672828     -0.00044853544  0.012412577    0.015542698  
     15900   0.01           157.795        29.95424       163.65398      2934.1758      1.0065599      1.5093156      12.77632       17.297209      0.2691378     -4.7900266     -0.014636519   -0.015886305   -0.014403612  
     16000   0.01           158.795        30.144179      180.32662      2955.7092      1.0122985      1.5179206      12.814347      17.277195      0.26216896    -4.7250176      0.01051411    -0.0047354517  -0.034611816  
     16100   0.01           159.795        30.332295      173.75323      2890.4751      0.97582764     1.4632332      12.801977      17.266156      0.24816312    -4.7123416      0.018898582   -0.0076571233   0.011623851  
     16200   0.01           160.795        30.515407      158.25556      2898.7392      0.9820472      1.4725593      12.725082      17.263438      0.25829049    -4.7966465      0.024343875    0.0038854409   0.040554159  
     16300   0.01           161.795        30.703459      188.78056      2946.1626      1.0014661      1.5016776      12.743056      17.267634      0.24392827    -4.7685061     -0.011437627    0.0084302853  -0.00025257279
     16400   0.01           162.795        30.892118      179.94519      2920.8479      0.99969489     1.4990217      12.732881      17.264488      0.26053374    -4.7921411      0.00050073226  0.013373944    0.043345752  
     16500   0.01           163.795        31.07964       187.96363      2890.1462      0.96583458     1.4482488      12.749899      17.262025      0.26410523    -4.7762319     -0.013380558   -0.045729526   -0.06081263   
     16600   0.01           164.795        31.267037      154.33448      2935.925       1.0255141      1.537737       12.765671      17.279198      0.25870011    -4.7722274      0.0050941997   0.0062212509   0.0025589151 
     16700   0.01           165.795        31.455591      202.80275      2929.065       1.0098106      1.51419        12.785278      17.276224      0.26291468    -4.7538603     -0.0035556372  -0.0061730121   0.0031055576 
     16800   0.01           166.795        31.647864      190.33507      2942.9457      0.99803402     1.4965312      12.792495      17.274542      0.26182109    -4.7438688     -0.016851249    0.0034619594  -0.046503156  
     16900   0.01           167.795        31.837357      202.61303      2884.3696      1.0203997      1.5300681      12.745404      17.270371      0.24501849    -4.7699861      0.031651172   -0.0091905662  -0.040191818  
     17000   0.01           168.795        32.029232      231.73062      2870.4544      1.0004152      1.5001017      12.746021      17.275927      0.26265907    -4.7925659     -0.041567819   -0.047117682   -0.061133399  
     17100   0.01           169.795        32.216755      191.55548      2937.0216      1.0292523      1.5433424      12.744945      17.286252      0.25603356    -4.7973404      0.010757381   -0.0017185673  -0.033674656  
     17200   0.01           170.795        32.403933      229.29612      2954.839       1.0205364      1.530273       12.740666      17.28488       0.25741548    -4.8016297     -0.012752967    0.0042406726   0.0132077    
     17300   0.01           171.795        32.590394      189.4437       3030.3651      1.0137006      1.520023       12.772282      17.298621      0.25687388    -4.7832127      0.035816701   -0.010790812    0.044083496  
     17400   0.01           172.795        32.78199       190.85162      2984.7276      0.99304946     1.489057       12.775478      17.275925      0.26266402    -4.7631112      0.027010135   -0.0010218345   0.032915547  
     17500   0.01           173.795        32.970637      210.3972       2907.2686      1.0031594      1.5042166      12.762795      17.273679      0.2595222     -4.7704055     -0.0018841224  -0.02022317     0.0033843434 
     17600   0.01           174.795        33.161857      188.86064      2882.585       1.0006574      1.500465       12.771943      17.270129      0.26382664    -4.7620127     -0.0073739457  -0.027333232   -0.068269934  
     17700   0.01           175.795        33.396101      181.84522      2917.4563      1.0224144      1.5330891      12.752955      17.274137      0.25342315    -4.7746053      0.0011884239  -0.0013590415   0.0046156688 
     17800   0.01           176.795        33.585234      172.38552      2864.9204      0.98745569     1.4806692      12.725718      17.262529      0.25034866    -4.7871596     -0.025256965    0.0024811558  -0.021418643  
     17900   0.01           177.795        33.773725      209.64905      2857.3391      1.008449       1.5121483      12.73092       17.264414      0.2592773     -4.7927711      0.0078841894   0.0076661105  -0.038821643  
     18000   0.01           178.795        33.962946      215.68446      2897.0133      1.0348778      1.5517777      12.751385      17.277952      0.25646527    -4.7830329      0.018222532   -0.014747623   -0.018714362  
     18100   0.01           179.795        34.153725      176.53657      2907.0617      1.01941        1.528584       12.743317      17.275625      0.25430603    -4.7866141     -0.005280746   -0.00070073465 -0.037536854  
     18200   0.01           180.795        34.339236      167.40039      2983.4108      1.0166769      1.5244858      12.797554      17.279747      0.26158242    -4.743776       0.022015758    0.0014358728  -0.042864782  
     18300   0.01           181.795        34.528772      193.29091      2860.601       1.0236507      1.534943       12.756251      17.262343      0.2610982     -4.767191      -0.015495736   -0.0061721221  -0.022049847  
     18400   0.01           182.795        34.720718      219.96434      2927.6185      1.021028       1.5310101      12.780418      17.276892      0.26418392    -4.7606586      0.0067279198  -0.014429858    0.084020122  
     18500   0.01           183.795        34.909151      199.10422      2996.7338      0.99127354     1.486394       12.787942      17.307801      0.27083162    -4.7906914      0.012175573   -0.013589785    0.0086023674 
     18600   0.01           184.795        35.095572      193.73626      2917.9362      0.98087555     1.4708025      12.714542      17.261611      0.2435688     -4.7906379     -0.031497456    0.013143213    0.031382809  
     18700   0.01           185.795        35.336514      187.11116      2894.043       1.0188623      1.5277628      12.694006      17.26586       0.23828427    -4.8101378     -0.032285581   -0.013627075   -0.0069693362 
     18800   0.01           186.795        35.52837       248.20927      2987.7515      0.97455819     1.4613297      12.76054       17.280239      0.27460496    -4.7943041     -0.006725331   -0.0011798444   0.017398161  
     18900   0.01           187.795        35.717183      164.32989      2809.1135      0.97555378     1.4628226      12.706212      17.238208      0.24103398    -4.7730303     -0.027700923    0.0014507536   0.019597167  
     19000   0.01           188.795        35.907461      208.68959      2857.1106      1.0082532      1.5118547      12.698514      17.246575      0.24579824    -4.7938595     -0.028051043   -0.022592402    0.0074644658 
     19100   0.01           189.795        36.09622       203.76169      2888.4976      0.99831413     1.4969512      12.734388      17.263003      0.2633292     -4.7919446     -0.014050317    0.0086261482   0.043433037  
     19200   0.01           190.795        36.289481      225.25484      2910.043       1.0079805      1.5114458      12.738974      17.262379      0.26618861    -4.7895943      0.0088765554  -0.01793417     0.029545996  
     19300   0.01           191.795        36.478063      200.21446      2884.8824      0.98477464     1.4766491      12.755582      17.274222      0.26483851    -4.7834782     -0.010385044   -0.0084399047  -0.083517097  
     19400   0.01           192.795        36.667015      176.88748      2941.3049      0.99152399     1.4867696      12.770394      17.288884      0.27338627    -4.7918766     -0.030334753   -0.022326398    0.0021622517 
     19500   0.01           193.795        36.851018      227.5507       2966.9958      1.0011545      1.5012103      12.763543      17.28145       0.26764508    -4.785552      -0.025779311   -0.031148138    0.0052317916 
     19600   0.01           194.795        37.041165      216.98171      2929.5674      1.0007458      1.5005975      12.766539      17.279495      0.27538394    -4.7883408      0.023728119    0.028366552    0.030723177  
     19700   0.01           195.795        37.234476      204.76924      2857.8793      0.99358807     1.4898646      12.753325      17.264098      0.26761131    -4.7783842     -0.006920261   -0.025809124   -0.082531136  
     19800   0.01           196.795        37.424119      167.75243      2905.8158      0.98039149     1.4700766      12.774518      17.277751      0.26065038    -4.7638834      0.012420625    0.00017004662 -0.018310843  
     19900   0.01           197.795        37.617134      159.4917       2938.0935      1.0010441      1.5010448      12.754875      17.273422      0.26467022    -4.7832168     -0.0052326849  -0.0017805144  -0.029890142  
     20000   0.01           198.795        37.808223      160.64347      2920.7482      0.98938947     1.4835689      12.739687      17.291859      0.25063388    -4.8028055     -0.022399003   -0.0098799044  -0.051942583  
     20100   0.01           199.795        38.041402      188.43262      2939.6005      0.97142866     1.456637       12.751613      17.282096      0.26309811    -4.793581      -0.023299231    0.0092157692  -0.0070896644 
     20200   0.01           200.795        38.229634      186.62216      2930.2513      1.0016832      1.502003       12.728716      17.272472      0.26183583    -4.8055924     -0.022794397   -0.018823728   -0.0019800405 
     20300   0.01           201.795        38.421402      231.15274      2930.1251      1.0111339      1.5161742      12.744873      17.267486      0.26171691    -4.7843291     -0.01160508    -0.010705692   -0.038403984  
     20400   0.01           202.795        38.615796      201.69531      2983.8331      0.99184233     1.4872469      12.770993      17.293151      0.25971665    -4.7818755     -0.009578706    0.01764555     0.017465039  
     20500   0.01           203.795        38.805937      170.2641       2905.388       1.001029       1.5010222      12.744709      17.275976      0.26488677    -4.7961539     -0.024344072   -0.015140142   -0.012871387  
     20600   0.01           204.795        38.995338      180.03568      2929.5058      1.0033156      1.5044508      12.731766      17.266364      0.25296426    -4.7875627      0.012401178   -0.0050704248   0.052873093  
     20700   0.01           205.795        39.190581      209.45891      2978.0093      1.0049334      1.5068767      12.728943      17.290779      0.25182238    -4.8136584      0.0086431849   0.0010667285  -0.037459118  
     20800   0.01           206.795        39.38069       185.10524      2958.0238      0.98508806     1.477119       12.729968      17.283904      0.25955461    -4.8134902     -0.0059741949   0.0011518329  -0.014287885  
     20900   0.01           207.795        39.576107      176.53974      2927.9948      0.98600622     1.4784958      12.697647      17.281641      0.24384329    -4.8278366     -0.012209885   -0.023009274    0.022116002  
     21000   0.01           208.795        39.769249      157.91081      2887.6711      0.99102212     1.486017       12.703067      17.269045      0.25281183    -4.8187899      0.0079669635  -0.01403616    -0.050264496  
     21100   0.01           209.795        39.959983      178.16663      3014.4584      0.98467765     1.4765036      12.712903      17.288474      0.25381928    -4.8293904     -0.0084980877   0.011411574   -0.01321939   
     21200   0.01           210.795        40.150549      204.11394      2904.5854      0.99562088     1.4929128      12.690352      17.258564      0.25210913    -4.8203208     -0.010903107    0.010546033    0.044262853  
     21300   0.01           211.795        40.340094      172.08903      2911.2132      0.99858933     1.4973639      12.715376      17.281672      0.25434444    -4.8206409     -0.0084284618  -0.02392777     0.003384612  
     21400   0.01           212.795        40.529968      191.67653      2971.656       0.98129449     1.4714307      12.727046      17.292142      0.25072889    -4.8158247     -0.014435736   -0.018401604    0.046806321  
     21500   0.01           213.795        40.725795      212.11593      2945.9214      0.98893596     1.4828889      12.722425      17.27156       0.25817485    -4.8073099      0.016657506   -0.017814597   -0.019829151  
     21600   0.01           214.795        40.921095      180.85509      2862.3783      0.99806556     1.4965785      12.690269      17.265403      0.25196156    -4.8270952     -0.045739003   -0.0054997473   6.2464693e-05
     21700   0.01           215.795        41.11187       170.84531      2872.375       0.98766218     1.4809789      12.750474      17.268719      0.24866632    -4.7669116     -0.0010082312   0.017273048   -0.019152458  
     21800   0.01           216.795        41.303921      169.61336      2981.7488      1.0004067      1.5000891      12.763503      17.308982      0.25941672    -4.8048957     -0.016404843   -0.029906767   -0.004463849  
     21900   0.01           217.795        41.495501      190.30449      2951.1588      0.98039574     1.470083       12.722465      17.268099      0.24501481    -4.7906485      0.0076193041   0.011034771    0.064338899  
     22000   0.01           218.795        41.685043      259.00536      2912.7774      0.98466683     1.4764874      12.764406      17.269483      0.25577714    -4.7608545     -0.0087275732  -0.048938058   -0.023247098  
     22100   0.01           219.795        41.870102      197.14427      2872.4343      0.99156837     1.4868361      12.731882      17.255606      0.2609374     -4.7846612     -0.026556891   -0.040322804   -0.034534149  
     22200   0.01           220.795        42.058203      179.83955      2952.8824      0.97940478     1.4685971      12.785418      17.272848      0.27446283    -4.761893       0.017708735    0.0034500156  -0.0076018258 
     22300   0.01           221.795        42.244337      224.33003      3005.7594      0.99022165     1.4848167      12.78108       17.28385       0.25595177    -4.7587218      0.014963979    0.011293755   -0.00053066039
     22400   0.01           222.795        42.426257      165.1679       2851.2225      1.0061697      1.5087305      12.754318      17.265405      0.26001674    -4.7711038     -0.0096536702  -0.010423802   -0.029620257  
     22500   0.01           223.795        42.613095      206.99749      2946.9422      0.99807506     1.4965928      12.799796      17.274037      0.27121819    -4.7454586      0.0032772896  -0.0086802227  -0.016439573  
     22600   0.01           224.795        42.798468      203.31542      2966.069       0.99722937     1.4953247      12.799429      17.284312      0.2581954     -4.7430781      0.011654252    0.0030694848   0.0084804376 
     22700   0.01           225.795        42.992732      173.95304      2941.2643      1.0217564      1.5321024      12.788859      17.285053      0.26346007    -4.7596545      0.025729972    0.026857914   -0.072076082  
     22800   0.01           226.795        43.181842      197.89986      2979.3949      1.0050217      1.5070091      12.771672      17.288417      0.27805716    -4.7948021     -0.011326646   -0.014267886    0.01098725   
     22900   0.01           227.795        43.373195      193.64444      2919.8491      0.99343467     1.4896346      12.748118      17.272859      0.25972655    -4.7844678     -0.010139287   -0.016355747    0.038672418  
     23000   0.01           228.795        43.564411      239.34197      2940.1413      1.0015603      1.5018187      12.751436      17.27312       0.25248988    -4.7741733      0.0017582641  -0.0032363013  -0.032928579  
     23100   0.01           229.795        43.78581       168.47501      2936.5906      0.99319489     1.489275       12.753526      17.274166      0.24927405    -4.7699136     -0.014764493   -0.00022434726  0.030275995  
     23200   0.01           230.795        43.977144      171.87296      2899.7715      0.99454607     1.4913011      12.75207       17.25961       0.25057738    -4.758117       0.0019542617  -0.0085610165   0.020245782  
     23300   0.01           231.795        44.162036      196.62376      2911.9722      1.007653       1.5109547      12.763756      17.267514      0.26529052    -4.7690488      0.00066137539 -0.0010460144  -0.003518228  
     23400   0.01           232.795        44.351011      150.22448      2875.6494      1.0136728      1.5199813      12.772569      17.264078      0.24955369    -4.7410633      0.024836293    0.010836536   -0.061413579  
     23500   0.01           233.795        44.536199      168.19685      2901.3071      1.0236139      1.5348877      12.765382      17.272245      0.24990037    -4.756764       0.046523718    0.01873599     0.022393967  
     23600   0.01           234.795        44.722272      170.03041      2951.4866      0.99677478     1.494643       12.795752      17.280991      0.2522329     -4.7374724     -0.019217292   -0.025831285   -0.018173885  
     23700   0.01           235.795        44.909129      187.76642      2835.5295      0.99453109     1.4912787      12.772008      17.268934      0.27050383    -4.7674298     -0.033123251   -0.037194971   -0.071953931  
     23800   0.01           236.795        45.101856      198.68137      2869.2757      0.98179445     1.4721803      12.774573      17.263147      0.27312235    -4.7616968     -0.020246577   -0.020292247   -0.075229412  
     23900   0.01           237.795        45.288019      177.91427      2926.2605      1.0045505      1.5063025      12.765823      17.271474      0.26753269    -4.7731836      0.0045961717   0.037475878    0.010694091  
     24000   0.01           238.795        45.474094      216.03437      2990.367       1.0121829      1.5177472      12.755071      17.279458      0.25299518    -4.7773819     -0.010412672    0.00690861     0.043686459  
     24100   0.01           239.795        45.661212      174.12786      2908.001       0.98725248     1.4803645      12.716668      17.269605      0.26624074    -4.8191776      0.0051358993  -0.021029382    0.0020341158 
     24200   0.01           240.795        45.85165       170.09847      2979.5782      0.98499112     1.4769737      12.738335      17.279736      0.24157725    -4.7829781      0.03882163     0.025222592    0.041886349  
     24300   0.01           241.795        46.040066      174.60002      2895.3521      1.0061489      1.5086994      12.765605      17.284844      0.2664391     -4.7856778     -0.022912297   -0.0055028178  -0.034537017  
     24400   0.01           242.795        46.227289      190.47369      3039.0864      1.003052       1.5040556      12.820237      17.316003      0.25302814    -4.7487936      0.006557197   -0.0047686762  -0.010913431  
     24500   0.01           243.795        46.413198      184.65749      2952.8931      1.0141245      1.5206586      12.773779      17.274503      0.26710699    -4.7678302      0.00051275806 -0.000909972    0.010359745  
     24600   0.01           244.795        46.59877       189.78823      2875.4117      1.0143865      1.5210514      12.76899       17.274128      0.25867089    -4.7638092     -0.041821624   -0.030915247   -0.0045603995 
     24700   0.01           245.795        46.788973      197.18009      2955.4826      0.99863916     1.4974386      12.762521      17.277396      0.25591969    -4.7707949     -0.0069392468   0.0043703637  -0.010168159  
     24800   0.01           246.795        46.975124      176.42323      2869.2992      1.0120749      1.5175852      12.762095      17.264449      0.25686019    -4.7592145     -0.005336922   -0.028192144   -0.0035543643 
     24900   0.01           247.795        47.166609      216.13455      2911.005       1.0210209      1.5309995      12.780322      17.264778      0.25968919    -4.7441454      0.02006927    -0.019187642   -0.0078071249 
     25000   0.01           248.795        47.352252      151.64503      2852.0206      0.98333878     1.474496       12.766691      17.26073       0.26160705    -4.755646      -0.022285016   -0.028486434   -0.11598859   
     25100   0.01           249.795        47.544871      186.56704      2904.1499      1.0329679      1.5489139      12.735445      17.264222      0.24495494    -4.7737318     -0.0016611538  -0.0041659115   0.037441825  
     25200   0.01           250.795        47.758674      167.38695      3005.2977      1.0143355      1.5209749      12.805658      17.309789      0.25852054    -4.7626512      0.0022926589   0.011225407   -0.0025651236 
     25300   0.01           251.795        47.949086      175.11679      2954.8681      1.0134315      1.5196194      12.808261      17.29723       0.27377806    -4.7627476      0.041109412    0.0012404255  -0.0044799512 
     25400   0.01           252.795        48.137669      183.92778      2931.117       0.98384454     1.4752544      12.794179      17.293361      0.2612155     -4.7603977     -0.0020690991  -0.011627842   -0.021627541  
     25500   0.01           253.795        48.324081      163.77518      2897.6783      0.99374498     1.4900999      12.77881       17.260332      0.26590382    -4.7474263     -0.019760651   -0.0087581517  -0.034927725  
     25600   0.01           254.795        48.509622      214.67307      2912.5811      1.017284       1.5253962      12.817547      17.286087      0.2740087     -4.7425495     -0.058309248   -0.0088578054  -0.034169308  
     25700   0.01           255.795        48.695913      150.42988      2918.7142      1.0341035      1.5506167      12.799833      17.272369      0.26621086    -4.7387467     -0.010777797   -0.047801319   -0.0077962968 
     25800   0.01           256.795        48.883252      175.12564      2926.7532      1.0199018      1.5293214      12.804542      17.277591      0.25409876    -4.7271473     -0.0017798733   0.025445133    0.010788275  
     25900   0.01           257.795        49.068528      254.74585      2937.7358      0.99876805     1.4976319      12.785447      17.278162      0.25622962    -4.7489446     -0.0045859078  -2.4410376e-05 -0.02136856   
     26000   0.01           258.795        49.256799      165.86108      2894.71        1.011815       1.5171955      12.791979      17.254671      0.26223418    -4.7249263      0.0096247783   0.013120742    0.023305471  
     26100   0.01           259.795        49.43989       201.00865      2945.8939      1.0066301      1.5094208      12.779596      17.284174      0.25292666    -4.7575051      0.0033057532   0.013492227    0.035472873  
     26200   0.01           260.795        49.62475       235.85076      2956.8289      1.0028824      1.5038012      12.782137      17.282947      0.26508011    -4.7658899      0.014126019    0.0084927079  -0.037360261  
     26300   0.01           261.795        49.809376      184.97917      2892.4673      0.99084509     1.4857516      12.757207      17.261882      0.25796582    -4.762641      -0.033779666    0.00019376592 -0.043616159  
     26400   0.01           262.795        49.99569       172.51339      2916.2025      0.98509527     1.4771298      12.768978      17.279673      0.25644367    -4.7671392     -0.0093937487  -0.030262012   -0.073828583  
     26500   0.01           263.795        50.182029      178.96343      2995.5522      0.99815531     1.4967131      12.784513      17.281348      0.26161798    -4.7584526      0.037037575   -0.020191489    0.022120771  
     26600   0.01           264.795        50.372739      181.45014      2938.6437      1.002426       1.5031168      12.771138      17.27552       0.24906524    -4.7534468     -0.040662843   -0.0099871107  -0.084422552  
     26700   0.01           265.795        50.559247      180.48241      2902.6094      1.0185223      1.5272529      12.742195      17.246233      0.27198166    -4.7760191      0.0053786445   0.03394754     0.021726969  
     26800   0.01           266.795        50.745307      181.63919      2978.5715      1.0083804      1.5120454      12.734605      17.269502      0.25297291    -4.7878704      0.0015553736  -0.0071582726   0.033169105  
     26900   0.01           267.795        50.928043      195.88034      2870.6068      0.99436358     1.4910275      12.733461      17.271944      0.26160881    -4.8000921      0.0052726898  -0.0086117175  -0.037689309  
     27000   0.01           268.795        51.11884       190.05187      2887.7705      0.98131981     1.4714686      12.786204      17.282866      0.26378378    -4.7604463     -0.015878926   -0.02344335    -0.0047758376 
     27100   0.01           269.795        51.305813      179.28122      2854.3789      0.99968472     1.4990064      12.762012      17.249742      0.2641942     -4.7519245      0.026330708   -0.0093678108   0.018772899  
     27200   0.01           270.795        51.491913      177.87218      2936.954       1.0149825      1.5219452      12.790461      17.288813      0.26704905    -4.7654007      0.010972663    0.0030587377  -0.037886757  
     27300   0.01           271.795        51.679471      222.59836      2873.8732      0.9782371      1.4668462      12.754363      17.271398      0.2540639     -4.7710989     -0.043451448   -0.039796111   -0.034880192  
     27400   0.01           272.795        51.866113      168.94342      2940.0873      1.0054075      1.5075876      12.789784      17.30042       0.25405896    -4.7646949     -0.0057721383  -0.026514195   -0.020359868  
     27500   0.01           273.795        52.052586      192.30655      2846.2358      1.0086408      1.5124358      12.743989      17.248565      0.25470629    -4.7592825     -0.011526772   -0.034090111    0.011929149  
     27600   0.01           274.795        52.239019      172.58544      2948.2493      1.0081084      1.5116375      12.744904      17.263547      0.24845298    -4.7670953      0.010379139    0.015002939    0.079424668  
     27700   0.01           275.795        52.426464      165.8433       2901.4327      1.0021322      1.5026764      12.751309      17.264359      0.25271611    -4.7657663      0.011475597    0.041398614    0.046985841  
     27800   0.01           276.795        52.618758      170.65952      2869.4315      0.97383067     1.4602388      12.775278      17.270587      0.27619178    -4.7715003     -0.03145328    -0.020783939   -0.022791448  
     27900   0.01           277.795        52.809756      174.02107      2811.5935      0.99642661     1.4941209      12.724341      17.221551      0.26537686    -4.7625876     -0.017818444   -0.026982054    0.027648417  
     28000   0.01           278.795        52.997919      166.39978      2942.4146      0.98803852     1.4815432      12.746075      17.300684      0.25203058    -4.8066391     -0.001885561    0.021243607   -0.027144059  
     28100   0.01           279.795        53.191274      195.28945      2935.6565      0.99278295     1.4886574      12.732568      17.269541      0.26425035    -4.8012236     -0.0078933105  -0.0039015286   0.047568975  
     28200   0.01           280.795        53.379527      213.35362      2921.2962      0.98499927     1.4769859      12.751936      17.277976      0.24640961    -4.7724492      0.026413852    0.0060274887  -0.043016756  
     28300   0.01           281.795        53.567642      194.58711      2913.9934      0.98528554     1.4774151      12.706417      17.275266      0.24201722    -4.8108665     -0.018471027   -0.015635132   -0.031589702  
     28400   0.01           282.795        53.758888      245.85624      2968.0561      1.0100509      1.5145502      12.766694      17.29731       0.2667878     -4.7974043     -0.013253921   -0.007549569    0.023270339  
     28500   0.01           283.795        53.94636       184.79516      3008.4649      0.99148827     1.486716       12.795169      17.300702      0.26328368    -4.768816       0.042598522    0.014496946    0.029462948  
     28600   0.01           284.795        54.130805      177.78461      2913.662       1.0105151      1.5152464      12.730192      17.25799       0.27515294    -4.8029508      0.043191735   -0.0005095696   0.038035792  
     28700   0.01           285.795        54.317474      180.28134      2888.412       1.0013402      1.5014888      12.759116      17.263407      0.26453841    -4.7688295     -0.013324428    4.0639336e-05 -0.020986499  
     28800   0.01           286.795        54.50489       192.01709      2928.0272      1.0254628      1.5376601      12.767697      17.291095      0.26677853    -4.7901763     -0.0043737606  -0.012423063   -0.037893855  
     28900   0.01           287.795        54.691715      231.63217      2938.9115      0.99797643     1.4964449      12.74276       17.284977      0.25663268    -4.7988498     -0.023709245   -0.01222801    -0.02232283   
     29000   0.01           288.795        54.879297      195.41635      2931.2348      0.98969096     1.484021       12.695527      17.27434       0.24960737    -4.8284208     -0.0081051955   0.00064747822  0.077281438  
     29100   0.01           289.795        55.067893      238.40891      2958.6606      1.0282689      1.5418677      12.716926      17.268901      0.25574948    -4.8077252      0.02662168    -0.013346165    0.051298826  
     29200   0.01           290.795        55.255296      162.17811      2917.1769      1.0080174      1.5115011      12.777579      17.276806      0.27071699    -4.7699443     -0.025817536   -0.0012865336  -0.018164011  
     29300   0.01           291.795        55.441599      171.1666       2942.34        1.0072627      1.5103694      12.769502      17.291175      0.26549399    -4.7871665      2.557504e-06  -0.013890516   -0.064181023  
     29400   0.01           292.795        55.629936      196.16723      3025.9715      1.019955       1.5294013      12.767611      17.290906      0.25439408    -4.7776892     -0.01726235    -0.012302631   -0.0075691986 
     29500   0.01           293.795        55.817467      174.95231      2999.5602      0.99727643     1.4953952      12.771302      17.295366      0.2610133     -4.7850781      0.016806581    0.002307299    0.024331184  
     29600   0.01           294.795        56.004954      203.97396      2959.7178      0.99650997     1.4942459      12.761457      17.296914      0.26579468    -4.8012522     -0.011081155    0.010259301   -0.039038044  
     29700   0.01           295.795        56.193084      164.25253      2856.0566      0.99848417     1.4972062      12.712649      17.246828      0.25145932    -4.7856385     -0.013707959   -0.0071131867  -0.032343193  
     29800   0.01           296.795        56.38437       168.26091      2899.491       0.9928574      1.488769       12.749811      17.261424      0.2632052     -4.7748187     -0.0012850644  -0.01096347    -0.032629837  
     29900   0.01           297.795        56.576764      203.84106      2888.7505      0.97281003     1.4587084      12.725905      17.255359      0.26020819    -4.7896628      0.011564628   -0.023818      -0.010072264  
     30000   0.01           298.795        56.7675        191.08232      2853.2106      1.0030478      1.5040493      12.772146      17.272823      0.26871895    -4.7693968     -0.017892566   -0.010201939   -0.024930577  
     30100   0.01           299.795        56.96063       226.63864      2956.8132      1.0038412      1.5052389      12.769357      17.277571      0.26745406    -4.7756682      0.0079876786   0.016189337    0.0058954033 
[...]
     92000   0.01           918.795        173.06306      169.37725      2939.0579      1.0048615      1.5067688      12.788261      17.277084      0.26083803    -4.749661      -0.010246228    0.0032310582   0.023314444  
     92100   0.01           919.795        173.24266      195.11917      2979.5272      0.98109408     1.4711301      12.817007      17.277579      0.26735424    -4.7279261     -0.022047404   -0.022967439   -0.057187358  
     92200   0.01           920.795        173.42939      233.9908       2873.4461      1.0162142      1.5237919      12.754022      17.263457      0.26242146    -4.7718558     -0.035047294   -0.023658785   -0.03922429   
     92300   0.01           921.795        173.61964      180.08365      2897.2864      0.97686291     1.4647856      12.758783      17.269637      0.25499704    -4.7658511     -0.0054653569  -0.03055028     0.019612058  
     92400   0.01           922.795        173.83149      159.99308      2908.2751      0.97805877     1.4665787      12.768756      17.265152      0.2424184     -4.7388146     -0.00037888709  0.017564897    0.010081413  
     92500   0.01           923.795        174.01747      182.25557      2949.0887      0.98952274     1.4837687      12.77425       17.280714      0.25402413    -4.7604879      0.011572271    0.014101068    0.061162668  
     92600   0.01           924.795        174.20858      206.98969      2910.2056      0.9972144      1.4953022      12.758         17.268547      0.26156366    -4.7721105     -9.4812563e-05 -0.004834273   -0.001723687  
     92700   0.01           925.795        174.39343      174.60157      2909.7319      0.99745934     1.4956695      12.754987      17.270841      0.23711179    -4.7529655     -0.0079136601  -0.031292981   -0.012368381  
     92800   0.01           926.795        174.58051      185.04914      2900.2897      0.99095635     1.4859184      12.774224      17.276565      0.25491277    -4.7572539     -0.018091382    0.015306438   -0.040328584  
     92900   0.01           927.795        174.76708      188.99738      2919.1825      1.0105738      1.5153344      12.706204      17.257197      0.25076118    -4.8017538     -0.010612977   -0.011379059    0.022473586  
     93000   0.01           928.795        174.95485      157.95141      2952.294       1.0025221      1.5032609      12.761986      17.268976      0.2699787     -4.7769678     -0.011639899    0.035507346    0.011258526  
     93100   0.01           929.795        175.1469       250.85772      2930.2283      0.98876359     1.4826304      12.729994      17.269394      0.25720352    -4.7966034     -0.026015752    9.0137326e-06  0.0010639352 
     93200   0.01           930.795        175.32815      178.71701      2932.7455      0.99851014     1.4972452      12.781845      17.2743        0.25347324    -4.7459275     -0.027755576   -0.010077351   -0.035110398  
     93300   0.01           931.795        175.51362      152.88768      2936.8432      1.0003771      1.5000446      12.766586      17.265933      0.26035957    -4.7597063      0.013272829    0.023695724    0.042766418  
     93400   0.01           932.795        175.70054      206.83459      2966.8967      0.99590695     1.4933417      12.772777      17.286705      0.24790985    -4.7618375     -0.0036543271   0.009000727   -0.0015748617 
     93500   0.01           933.795        175.92187      222.52027      2913.5795      1.0260957      1.5386092      12.728522      17.28295       0.24639778    -4.8008251     -0.015444444    0.028943775   -0.00030490112
     93600   0.01           934.795        176.11116      168.82811      2934.0917      0.99273353     1.4885832      12.760309      17.272132      0.25268751    -4.7645102     -0.029532614   -0.025777597   -0.045431297  
     93700   0.01           935.795        176.29683      178.83531      2927.3771      0.98823495     1.4818377      12.727034      17.26031       0.24808466    -4.7813599      0.0031116326  -3.2285816e-05 -0.011450803  
     93800   0.01           936.795        176.48228      195.43769      2872.3635      0.97123577     1.4563478      12.726916      17.248921      0.26146481    -4.7834704      0.0089073833   0.023004341    0.022868433  
     93900   0.01           937.795        176.66817      159.62305      2860.0867      0.965545       1.4478146      12.779772      17.271133      0.26506784    -4.7564288     -0.026269481   -0.014654072   -0.04255372   
     94000   0.01           938.795        176.84972      158.7518       2907.2067      0.98874788     1.4826068      12.799507      17.251096      0.26765943    -4.7192491     -0.0099956008  -0.0080920077   0.010480164  
     94100   0.01           939.795        177.03365      191.76371      2885.0657      1.0063133      1.5089458      12.787005      17.263921      0.25810435    -4.7350198      0.0051670456   0.020899424   -0.037202604  
     94200   0.01           940.795        177.22921      165.16903      2906.4873      0.98107866     1.471107       12.805597      17.270651      0.26497994    -4.7300348      0.0036457222   0.014213714   -0.12333972   
     94300   0.01           941.795        177.41389      170.39012      2869.8288      0.98696154     1.4799283      12.75836       17.248715      0.24924712    -4.7396022      0.011982593    0.024416238    0.01942116   
     94400   0.01           942.795        177.59942      199.15188      2938.2808      0.99855052     1.4973057      12.787029      17.274334      0.26097035    -4.7482753     -0.015818268    0.020119345   -0.043040123  
     94500   0.01           943.795        177.7808       193.01234      2926.1016      0.98150067     1.4717398      12.789819      17.293704      0.2590454     -4.7629301     -0.016832834   -0.013675343    0.0033258159 
     94600   0.01           944.795        177.97418      178.33697      2903.4759      0.98848228     1.4822086      12.778918      17.273474      0.2515742     -4.74613       -0.020336532   -0.012197921   -0.015562618  
     94700   0.01           945.795        178.15841      180.98503      2894.6675      0.99382817     1.4902246      12.765883      17.258727      0.26338703    -4.7562313     -0.032565881    0.01195683    -0.051851844  
     94800   0.01           946.795        178.34371      170.25032      2917.2827      0.98187012     1.4722938      12.787908      17.283905      0.26168278    -4.7576793     -0.031467295   -0.028540921   -0.025144477  
     94900   0.01           947.795        178.5288       196.38886      2959.6067      0.97376717     1.4601436      12.807275      17.284557      0.25947547    -4.7367583     -0.0023664791   0.0086755182   0.012908518  
     95000   0.01           948.795        178.71505      153.18562      2884.971       0.99546653     1.4926813      12.807197      17.276495      0.26603003    -4.7353278     -0.021225779   -0.0010797767  -0.05071522   
     95100   0.01           949.795        178.89978      220.00255      2936.4378      1.0219095      1.5323321      12.812475      17.283992      0.25075479    -4.722272      -0.030371513   -0.0092092729  -0.040643938  
     95200   0.01           950.795        179.08972      172.74078      2929.9339      1.0062289      1.5088192      12.825766      17.267826      0.27149053    -4.7135505     -0.016853712   -0.011513615   -0.041536937  
     95300   0.01           951.795        179.2737       196.62025      2934.0123      1.0169041      1.5248266      12.830879      17.279195      0.27336531    -4.7216811     -0.00093648301 -0.022484569    0.038748809  
     95400   0.01           952.795        179.45888      180.11298      2923.6188      1.0032539      1.5043583      12.836425      17.282658      0.26879783    -4.71503        0.00042167842  0.024489614   -0.0040571733 
     95500   0.01           953.795        179.64296      186.36904      2947.8511      0.98511988     1.4771667      12.845863      17.298035      0.25319298    -4.7053649      0.0092205511  -0.010449805   -0.034991901  
     95600   0.01           954.795        179.82688      166.46373      2926.6619      1.0153376      1.5224776      12.801543      17.267966      0.2573514     -4.7237742     -0.0078570869  -0.01782707    -0.030648387  
     95700   0.01           955.795        180.01107      238.88178      2940.6774      1.0200489      1.5295421      12.787977      17.298241      0.24778915    -4.7580531     -0.01582682    -0.0076822509  -0.049326453  
     95800   0.01           956.795        180.19587      210.54522      2961.0988      0.99601341     1.4935014      12.784749      17.277501      0.26458143    -4.7573333     -0.027033988   -0.022787331   -0.044189462  
     95900   0.01           957.795        180.42235      224.09999      2908.3725      1.0027939      1.5036685      12.783173      17.275563      0.27496153    -4.7673519     -0.016570372   -0.0045740987  -0.072404426  
     96000   0.01           958.795        180.60826      187.79332      2946.5805      0.99477209     1.49164        12.79269       17.271539      0.26029531    -4.7391441      0.0018059885  -0.024821218    0.045407054  
     96100   0.01           959.795        180.79198      242.41751      2940.4592      1.0063947      1.5090679      12.786374      17.267305      0.26521671    -4.7461482     -0.031853121   -0.027376342    0.033586633  
     96200   0.01           960.795        180.97072      143.24364      2881.9931      0.97925739     1.468376       12.794185      17.244945      0.25490232    -4.7056619      0.0083291782  -0.0056628126  -0.02158154   
     96300   0.01           961.795        181.16499      156.80013      2900.6604      0.989327       1.4834752      12.809813      17.277971      0.25085082    -4.7190087      0.0018439907   0.013152372   -0.030017676  
     96400   0.01           962.795        181.34962      164.8777       2910.5057      1.0001369      1.4996845      12.794465      17.264064      0.26281376    -4.7324131     -0.0082911913  -0.0057541515  -0.013519779  
     96500   0.01           963.795        181.53443      156.49392      2834.0408      1.0111638      1.516219       12.776165      17.246261      0.27952459    -4.7496206     -0.022395988    0.0062322586   0.051765217  
     96600   0.01           964.795        181.71749      241.579        2932.639       0.99979683     1.4991745      12.799792      17.281207      0.26257216    -4.7439866     -0.024963454    0.029679575    0.041039762  
     96700   0.01           965.795        181.90159      202.57591      2968.5122      0.98002261     1.4695235      12.816186      17.290148      0.26892578    -4.7428881     -0.010236825   -0.019234331   -0.0038158158 
     96800   0.01           966.795        182.08768      219.36151      2926.5507      1.0284198      1.5420941      12.816666      17.279221      0.28762214    -4.750178      -0.010377441    0.0036930183   0.038341057  
     96900   0.01           967.795        182.275        180.90573      2916.9301      0.99764028     1.4959408      12.79056       17.268133      0.26365766    -4.7412308     -0.060865334    0.0041437779  -0.023329717  
     97000   0.01           968.795        182.45857      187.5916       2903.7764      0.99021064     1.4848002      12.783085      17.273271      0.2563531     -4.7465392     -0.0040800144  -0.007114085    0.0062901097 
     97100   0.01           969.795        182.6457       176.60215      2969.27        0.98006606     1.4695886      12.794719      17.288125      0.25646452    -4.7498708      0.0046601946   0.0061756208   0.071311771  
     97200   0.01           970.795        182.82866      206.6325       2868.7181      1.0090557      1.5130581      12.763338      17.27473       0.27286557    -4.7842577     -0.0068936131   0.00068999306  0.039951757  
     97300   0.01           971.795        183.01972      225.06879      2918.2185      0.99178726     1.4871643      12.771954      17.26472       0.24226135    -4.7350268     -0.0039964066  -0.015886194   -0.030467041  
     97400   0.01           972.795        183.20729      204.4085       2969.1129      0.9833493      1.4745118      12.795147      17.293608      0.25974572    -4.7582065      0.012402042    0.019856366   -0.013224829  
     97500   0.01           973.795        183.38989      149.29205      2843.407       1.0079198      1.5113548      12.751914      17.262135      0.24891141    -4.7591332     -0.0060332228   0.0088378572  -0.029476192  
     97600   0.01           974.795        183.57917      193.91425      2888.9172      1.0199845      1.5294455      12.734205      17.254254      0.25876618    -4.7788157     -0.0079298621  -0.021994195   -0.013426429  
     97700   0.01           975.795        183.76395      178.57385      2926.6957      1.0079483      1.5113974      12.760575      17.268439      0.25428254    -4.7621458     -0.030358439   -0.0079251603  -0.038310145  
     97800   0.01           976.795        183.94825      189.20009      2917.3831      1.0017738      1.5021389      12.795469      17.264859      0.26917742    -4.7385676     -0.00062805912 -0.0037509836  -0.045897715  
     97900   0.01           977.795        184.13362      196.80148      2949.7908      1.001482       1.5017014      12.763302      17.273288      0.26840155    -4.7783873     -0.0022623083   0.0015558068   0.0039039108 
     98000   0.01           978.795        184.31838      247.19261      2899.5108      0.98641905     1.4791148      12.75767       17.26729       0.25709155    -4.7667114     -0.0025694426  -0.010347458   -0.063408204  
     98100   0.01           979.795        184.50215      183.62271      2971.3822      0.98411162     1.4756549      12.777856      17.271637      0.24690389    -4.7406847      0.016943877    0.030992892    0.013663491  
     98200   0.01           980.795        184.68929      248.32913      2942.0741      1.0025054      1.503236       12.763909      17.259953      0.24901767    -4.7450623      0.018235081    0.0037001991  -0.013620754  
     98300   0.01           981.795        184.87702      179.67301      2991.1103      0.99996788     1.499431       12.841905      17.292429      0.27142341    -4.7219473      0.012845321    0.013821297    0.047381963  
     98400   0.01           982.795        185.07084      195.80689      2952.6587      0.99225262     1.4878621      12.785111      17.269304      0.26769374    -4.7518866     -0.017201914   -0.00041364022  0.0073117972 
     98500   0.01           983.795        185.25523      171.19588      2918.2327      0.98187358     1.472299       12.786159      17.275597      0.26382089    -4.7532586     -0.03168412    -0.021445666   -0.028807206  
     98600   0.01           984.795        185.44565      164.41012      2935.5235      1.0091686      1.5132272      12.756256      17.271836      0.23553487    -4.7511141      0.040519436    0.0052882883   0.036266277  
     98700   0.01           985.795        185.62931      199.52639      2946.2957      0.99439286     1.4910714      12.810398      17.265743      0.25081183    -4.7061567      0.012799821    0.0034847348  -0.019535846  
     98800   0.01           986.795        185.85546      168.54757      2865.9481      1.0038067      1.5051873      12.806414      17.267552      0.25802615    -4.719164      -0.015521846   -0.018651624   -0.018158071  
     98900   0.01           987.795        186.04078      161.41221      2949.0661      1.0087472      1.5125954      12.819917      17.28119       0.24781912    -4.7090917     -0.029875973   -0.0085478906  -0.033870986  
     99000   0.01           988.795        186.22262      187.15328      2942.8893      0.98693556     1.4798893      12.830982      17.28687       0.25425327    -4.7101413     -0.011873674   -0.02640766    -0.052982198  
     99100   0.01           989.795        186.40896      235.64217      2990.511       1.0414578      1.5616442      12.821169      17.274466      0.25939109    -4.7126883     -0.020969212   -0.004363747    0.030394623  
     99200   0.01           990.795        186.59159      203.923        2934.4142      1.032289       1.5478958      12.855054      17.285727      0.27336816    -4.7040413     -0.026301732   -0.01256244    -0.031346582  
     99300   0.01           991.795        186.77418      202.16883      2890.7931      1.0152733      1.5223812      12.81694       17.273668      0.27671724    -4.7334452      0.0050829158  -0.011410614    0.037494178  
     99400   0.01           992.795        186.96302      166.47715      2899.6234      1.0200272      1.5295095      12.797929      17.279838      0.27405406    -4.7559636     -0.0054060338  -0.010641845   -0.0071891767 
     99500   0.01           993.795        187.1485       203.40231      2950.7722      1.0076814      1.5109973      12.803136      17.284979      0.26109109    -4.7429348      0.0036013362   0.0088059898   0.03627428   
     99600   0.01           994.795        187.33168      279.89553      2976.7274      1.0259783      1.5384331      12.800535      17.285546      0.25732414    -4.742335       0.0089587167  -0.014254244    0.050070482  
     99700   0.01           995.795        187.51738      189.7495       2943.9003      1.0282518      1.5418421      12.81871       17.281346      0.26841772    -4.7310536      0.030240425   -0.016970044   -0.052478151  
     99800   0.01           996.795        187.70786      240.79687      2990.0926      0.98260311     1.4733929      12.841103      17.288889      0.25711087    -4.7048971      0.014117589   -0.019902281   -0.025089638  
     99900   0.01           997.795        187.89124      178.35539      2960.927       1.0220689      1.5325709      12.822805      17.283009      0.25527254    -4.7154773     -0.010536006   -0.063602098   -0.00034703234
    100000   0.01           998.795        188.07468      190.59029      2956.7495      1.0119379      1.5173799      12.822054      17.278799      0.26286206    -4.7196074      0.011460736    0.021992561   -0.01046074   
    100100   0.01           999.795        188.2587       196.24938      2965.2614      1.0078444      1.5112417      12.800075      17.28585       0.26800676    -4.7537816     -0.029916533   -0.025446911   -0.050319791  
    100200   0.01           1000.795       188.44539      195.83407      2901.6005      1.0126341      1.5184237      12.755929      17.271511      0.25832179    -4.7739031     -0.0050952022  -0.049439549    0.020620863  
    100233   0.01           1001.125       188.50507      162.02019      2841.7153      1.0164531      1.5241503      12.741582      17.25815       0.26529255    -4.7818603     -0.039995471   -0.022982304   -0.074287269  
Loop time of 188.505 on 1 procs for 100000 steps with 2880 atoms

Performance: 458342.983 tau/day, 530.490 timesteps/s, 1.528 Matom-step/s
98.9% CPU use with 1 MPI tasks x 1 OpenMP threads

MPI task timing breakdown:
Section |  min time  |  avg time  |  max time  |%varavg| %total
---------------------------------------------------------------
Pair    | 147.89     | 147.89     | 147.89     |   0.0 | 78.46
Bond    | 4.3245     | 4.3245     | 4.3245     |   0.0 |  2.29
Neigh   | 27.306     | 27.306     | 27.306     |   0.0 | 14.49
Comm    | 1.0063     | 1.0063     | 1.0063     |   0.0 |  0.53
Output  | 0.10001    | 0.10001    | 0.10001    |   0.0 |  0.05
Modify  | 7.3615     | 7.3615     | 7.3615     |   0.0 |  3.91
Other   |            | 0.5132     |            |       |  0.27

Nlocal:           2880 ave        2880 max        2880 min
Histogram: 1 0 0 0 0 0 0 0 0 0
Nghost:           1938 ave        1938 max        1938 min
Histogram: 1 0 0 0 0 0 0 0 0 0
Neighs:         114334 ave      114334 max      114334 min
Histogram: 1 0 0 0 0 0 0 0 0 0

Total # of neighbors = 114334
Ave neighs/atom = 39.699306
Ave special neighs/atom = 4
Neighbor list builds = 7081
Dangerous builds = 0
Total wall time: 0:03:09
